[Molden Format]
[Molpro variables]
_NUMVAR=  804.0000000000000    
_AVOGAD= 0.6022136736000000E+24
_BOLTZ= 0.1380658000000000E-22
_CLIGHT=  29979245800.00000    
_EV2006= 0.3674930886769165E-01
_EV= 0.3674932534394180E-01
_ENULL= 0.8854187817000000E-11
_KJOULE= 0.3808798324128737E-03
_KJOULE/MOL= 0.3808798324128737E-03
_CM= 0.4556335267302901E-05
_CM-1= 0.4556335267302901E-05
_DEB2SI= 0.3335641000000000E-29
_AMU2AU=  1822.888390000000    
_KCAL= 0.1593601117815568E-02
_KCAL/MOL= 0.1593601117815568E-02
_KELVIN2006= 0.3166828861084835E-05
_KELVIN= 0.3166814820820034E-05
_JOULE= 0.4359748200000000E-17
_HERTZ2006= 0.1519829850815779E-15
_HERTZ= 0.1519829846011223E-15
_HZ2006= 0.1519829850815779E-15
_HZ= 0.1519829846011223E-15
_JPCAL=  4.184000000000000    
_PLANCK= 0.6626075540000000E-33
_TOA2006= 0.5291772490000000    
_TOA= 0.5291772090000000    
_TOANG2006= 0.5291772490000000    
_TOANG= 0.5291772090000000    
_TORAD= 0.1745329251994330E-01
_TOCM=  219474.6306700000    
_TODEBYE=  2.541580000000000    
_TOEV2006=  27.21139610000000    
_TOE= 0.4803242000000000E-09
_TOEV=  27.21138390000000    
_TOHERTZ2006=  6579683899900000.    
_TOHERTZ=  6579683920700000.    
_TOHZ2006=  6579683899900000.    
_TOHZ=  6579683920700000.    
_TOK2006=  315773.3000000000    
_TOK=  315774.7000000000    
_TOKCAL=  627.5096000000000    
_TOKELVIN2006=  315773.3000000000    
_TOKELVIN=  315774.7000000000    
_TOKJ=  2625.500000000000    
_TOKJOULE=  2625.500000000000    
_TOKG= 0.1660565586000000E-26
_ANG2006=  1.889725988578923    
_ANG=  1.889726131421507    
_ANGSTROM2006=  1.889725988578923    
_ANGSTROM=  1.889726131421507    
_RPAREF=  0.000000000000000    
_RPADISS=  0.000000000000000    
_IGNORE_UNDEF=  2.000000000000000    
_STRICTCHECK=  0.000000000000000    
_SEW_ONEEL=  0.000000000000000    
_CPPDONE=FALSE
_DKROLL_DONE=  0.000000000000000    
_FOCKDONE=TRUE
_GRADONE=FALSE
_HESSDONE=FALSE
_INTDONE=TRUE
_SCFDONE=TRUE
_MODUL_BLOCK=FALSE
_MODUL_CUDA=FALSE
_MODUL_SLATER=FALSE
_MODUL_MRCC=FALSE
_MODUL_NBO6=FALSE
_MODUL_NECI=TRUE
_MODUL_AIMS=TRUE
_MRCC_EXEC=
_FITC_AO_SAVED=FALSE
_FITC_MO_SAVED=FALSE
_SHARED_FS=TRUE
_LSTYP=SEWARD
_INTYP=INTS
_GEOMTYP=ZMAT
_GRADTYP=ALASKA
_DIRECT=FALSE
_DKHO= -1.000000000000000    
_SYNCM=  0.000000000000000    
_BASIS=USERDEF
_ZORIENT=  1.000000000000000    
_NELEC=  16.00000000000000    
!SPIN=  0.000000000000000    
_QSDSTEP=  0.000000000000000    
_QSDIRC=  0.000000000000000    
_PROGRAM=MATROP
_CPUSTEP= 0.9999999999999787E-02
_SYSSTEP= 0.1000000000000023E-01
_WALLSTEP= 0.1800000000000000    
!DFSCF=  0.000000000000000    
!SCSGRD=  0.000000000000000    
_BASINP=  610.0000000000000    
_CPUTOT=  4.020000000000000    
_DFTEXFAC=  1.000000000000000    
_DMX=  0.000000000000000    
_DMY=  0.000000000000000    
_DMZ=  0.000000000000000    
_DMX_SCF=  0.000000000000000    
_DMY_SCF=  0.000000000000000    
_DMZ_SCF=  0.000000000000000    
_EHOMO=-0.3931176384557705    
_ELUMO= 0.1507684619250808    
_ENUC=  32.90960542492468    
_EPS1= -15.67674375027120    
_EPS2=-0.5571906749724540    
_EPS3= -15.67542446660269    
_EPS4=-0.5304256059670008E-01
_GRADEXFAC=  9999.000000000000    
_GRADMETHOD=TRUE
_NMRMETHOD=  0.000000000000000    
!GRID_FREEZE= -1.000000000000000    
_ITERATIONS=  0.000000000000000    
_LASTNELEC=  8.000000000000000    
_LASTSPIN=  2.000000000000000    
_LASTSYM=  1.000000000000000    
_MPP_PROG=  0.000000000000000    
_NPROC_MPP=  1.000000000000000    
_NPROC_MPPX=  1.000000000000000    
_NPROC_SMP=  16.00000000000000    
_NUMSTEP=  0.000000000000000    
_ORBITAL=  2141.200000000000    
_PI=  3.141592653589793    
_SEIG_MIN= 0.7442282617842458E-02
_SEWPROP=TRUE
_STATUS=  0.000000000000000    
_SYSTOT=  2.030000000000000    
_VERSION=  2012001.000000000    
_WALLTOT=  41.90000000000000    
_DATE=24-Jan-19
_LASTORB=MCSCF
_MACHINE=Linux-4.9.0-8-amd64/nympha18.meta.zcu.cz(x86_64) (16 PROC) 64 bit serial version
_OUTPUT=/auto/brno2/home/masiz4am/git/UKRmol-in/tests/suite/C2h_target_CAS1/molpro.xml
_PGROUP=C2h
_TIME=16:34:21
_LIBMOL=/afs/ics.muni.cz/software/molpro-2012.1/molprop_2012_1_Linux_x86_64_i8/lib/
!VIBCNT=  0.000000000000000    
!RGHFCNT=  0.000000000000000    
!SURFREC=  0.000000000000000    
!POLYREC=  0.000000000000000    
!DIPREC=  0.000000000000000    
!VSCFREC=  0.000000000000000    
!VCIREC=  0.000000000000000    
!PVCIREC=  0.000000000000000    
!VMP2REC=  0.000000000000000    
!VMCSCFREC=  0.000000000000000    
!VMRCIREC=  0.000000000000000    
!VIBINFO=  0.000000000000000    
!GAREC=  0.000000000000000    
!SCFORB=  21002.00000000000    
!MCORB=  21412.00000000000    
!NEWMOL= -1.000000000000000    
!NEWSYM= -1.000000000000000    
_SLFILES=slscratch
_NGSSTO=  9.000000000000000    
_SIN=SIN
_COS=COS
_TAN=TAN
_ACOS=ACOS
_ASIN=ASIN
_ATAN=ATAN
_COSH=COSH
_SINH=SINH
_TANH=TANH
_ABS=ABS
_MOD=MOD
_ERF=ERF
_REFC=REFC
_ERFC=ERFC
_HYPOT=HYPOT
_J0=J0
_J1=J1
_JN=JN
_GAMMA=GAMMA
_LGAMMA=LGAMMA
_Y0=Y0
_Y1=Y1
_YN=YN
_EXP=EXP
_LOG=LOG
_LOG10=LOG10
_SQRT=SQRT
_INT=INT
_NINT=NINT
_MAX=MAX
_MIN=MIN
_COSMO=  0.000000000000000    
_COSMOIT=  0.000000000000000    
_COSMOES=  0.000000000000000    
_COSMOEDS=  0.000000000000000    
_COSMOEC=  0.000000000000000    
_COSMOEDCORR=  0.000000000000000    
_FEPSI=  1.000000000000000    
_SL_IsMM=  0.000000000000000    
_SL_NSYM=  4.000000000000000    
_SL_System_BitSw=  0.000000000000000    
_SL_Unique_atoms=  0.000000000000000    
_SL_GRAD=  0.000000000000000    
_SL_MAXUPD_Hess=  5.000000000000000    
_SL_N_PRINT_COD=  5.000000000000000    
_SL_PRINT_CODES=  0.000000000000000    
_SL_BasType=  0.000000000000000    
_SL_Energy_Pred=  0.000000000000000    
_SL_New_Coords=  0.000000000000000    
_SL_Total_Nuclea=  0.000000000000000    
_SL_Highest_Mltp=  0.000000000000000    
_SL_Ref_Geom=  0.000000000000000    
_SL_Symmetry_ope=  1.000000000000000    
_SL_agrad=  0.000000000000000    
_SL_GrdMax=  0.000000000000000    
_SL_GrdNorm=  0.000000000000000    
_SL_GrdRMS=  0.000000000000000    
!LATTICE= -1.000000000000000    
!NEWLATTICE=  0.000000000000000    
!LATGRAD_VAR=FALSE
!SEW_LATTICE=  1.000000000000000    
!LOCAL=  0.000000000000000    
!SAVEDOM= -1.000000000000000    
!RESTDOM= -1.000000000000000    
!SAVEDOM_HF= -1.000000000000000    
!RESTDOM_HF= -1.000000000000000    
!HESSREC=  0.000000000000000    
!FREQREC=  0.000000000000000    
!NMODREC=  0.000000000000000    
!GTASKS=  0.000000000000000    
!HTASKS=  0.000000000000000    
!THRCHG= 0.1000000000000000    
!DEBUG= -1.000000000000000    
!CFIT_CPHF=  0.000000000000000    
!RDOMAUX_CPHF=  3.000000000000000    
!THRAO_CPHF= 0.1000000000000000E-09
!THRMO_CPHF= 0.1000000000000000E-08
!THROV_CPHF= 0.1000000000000000E-11
!THRSW_CPHF= 0.1000000000000000E-09
!THRPROD_CPHF= 0.1000000000000000E-08
!THRAOPR_CPHF= 0.1000000000000000E-11
!CFIT_SCFGRD=  0.000000000000000    
!RDOMAUX_SCFGRD=  5.000000000000000    
!THRAO_SCFGRD= 0.1000000000000000E-09
!THRMO_SCFGRD= 0.1000000000000000E-08
!THROV_SCFGRD= 0.1000000000000000E-11
!THRSW_SCFGRD= 0.1000000000000000E-09
!THRPROD_SCFGRD= 0.1000000000000000E-08
!THRAOPR_SCFGRD= 0.1000000000000000E-11
!LOCFIT_SCF=  0.000000000000000    
!LOCFIT_MP2= -1.000000000000000    
_RIDOM=  0.000000000000000    
!CC2_METHOD=  0.000000000000000    
_BASIS2006=FALSE
_SVDDEL= -1.000000000000000    
_SVDDELA= -1.000000000000000    
_SVDDELP= -1.000000000000000    
_SVDDELF= -1.000000000000000    
_SVDDELS= -1.000000000000000    
_SVDDEL_ABS= -1.000000000000000    
_SVDDELA_ABS= -1.000000000000000    
_SVDDELP_ABS= -1.000000000000000    
_SVDDELF_ABS= -1.000000000000000    
_SVDDELS_ABS= -1.000000000000000    
_MAXBASIS=  0.000000000000000    
!OPT_CONICAL=  0.000000000000000    
!CLEARSP_JGRID=  0.000000000000000    
_4EXT_NDISKS=  1.000000000000000    
!ZMP=  0.000000000000000    
_MAXIT_ZMP=  500.0000000000000    
_MAXDIS_ZMP=  100.0000000000000    
_ACCU_ZMP=  14.00000000000000    
_SHIFTA_ZMP= -100.0000000000000    
!EMBEDFLAG=  1.000000000000000    
!EMBED=FALSE
!EMBED_F12=FALSE
!EMBEDNUC=  0.000000000000000    
_EMBEDENERGY=  0.000000000000000    
_KSPACETIME=  0.000000000000000    
_RSPACETIME=  0.000000000000000    
!EMBED_DFC=FALSE
!NUM_VOIDS=  0.000000000000000    
_IBODY=  0.000000000000000    
_EMBE_TOTAL=  0.000000000000000    
_EMBE_HF=  0.000000000000000    
_EMBE_CORR=  0.000000000000000    
!EDFT=  0.000000000000000    
_IFASTLATGRAD=  0.000000000000000    
_SINDEX=  0.000000000000000    
M_NAME=CASSCF(8,8)
M_CLOSED=  2.000000000000000    
M_OCC=  5.000000000000000    
GX1=  0.000000000000000    
GY1=  0.000000000000000    
GZ1=  1.147819566000000    
GX2=  0.000000000000000    
GY2=  1.840404140000000    
GZ2=  1.722863184000000    
GX3=  0.000000000000000    
GY3=  0.000000000000000    
GZ3= -1.147819566000000    
GX4=  0.000000000000000    
GY4= -1.840404140000000    
GZ4= -1.722863184000000    
_TRDMX=  0.000000000000000    
_TRDMY=  0.000000000000000    
_TRDMZ=  0.000000000000000    
_QMXX=-0.1197082781518422    
_TRQMXX=-0.8735315337759939    
_QMYY=  1.446457999930765    
_TRQMYY=  1.048450489852592    
_QMZZ= -1.326749721778917    
_TRQMZZ=-0.1749189560765990    
_QMXY=  0.000000000000000    
_TRQMXY=  0.000000000000000    
_QMXZ=  0.000000000000000    
_TRQMXZ=  0.000000000000000    
_QMYZ=  3.784519640311705    
_TRQMYZ=  2.524108343230532    
_QMRR= -25.42951879979936    
_TRQMRR=  2.184760425864289    
[Atoms] Angs
N     1    7         0.0000000000        0.0000000000        0.6073999544
H     2    1         0.0000000000        0.9738999262        0.9116999312
N     3    7         0.0000000000        0.0000000000       -0.6073999544
H     4    1         0.0000000000       -0.9738999262       -0.9116999312
[GTO]
  1 0
 s    8  1.00
  0.9046000000D+04  0.6996174134D-03
  0.1357000000D+04  0.5386054630D-02
  0.3093000000D+03  0.2739102119D-01
  0.8773000000D+02  0.1031505920D+00
  0.2856000000D+02  0.2785706633D+00
  0.1021000000D+02  0.4482948495D+00
  0.3838000000D+01  0.2780859284D+00
  0.7466000000D+00  0.1543156123D-01
 s    8  1.00
  0.9046000000D+04 -0.3049900960D-03
  0.1357000000D+04 -0.2408026379D-02
  0.3093000000D+03 -0.1194444873D-01
  0.8773000000D+02 -0.4892599291D-01
  0.2856000000D+02 -0.1344727247D+00
  0.1021000000D+02 -0.3151125777D+00
  0.3838000000D+01 -0.2428578325D+00
  0.7466000000D+00  0.1094382207D+01
 s    1  1.00
  0.2248000000D+00  0.1000000000D+01
 p    3  1.00
  0.1355000000D+02  0.5890567677D-01
  0.2917000000D+01  0.3204611067D+00
  0.7973000000D+00  0.7530420618D+00
 p    1  1.00
  0.2185000000D+00  0.1000000000D+01
 d    1  1.00
  0.8170000000D+00  0.1000000000D+01
  
  3 0
 s    8  1.00
  0.9046000000D+04  0.6996174134D-03
  0.1357000000D+04  0.5386054630D-02
  0.3093000000D+03  0.2739102119D-01
  0.8773000000D+02  0.1031505920D+00
  0.2856000000D+02  0.2785706633D+00
  0.1021000000D+02  0.4482948495D+00
  0.3838000000D+01  0.2780859284D+00
  0.7466000000D+00  0.1543156123D-01
 s    8  1.00
  0.9046000000D+04 -0.3049900960D-03
  0.1357000000D+04 -0.2408026379D-02
  0.3093000000D+03 -0.1194444873D-01
  0.8773000000D+02 -0.4892599291D-01
  0.2856000000D+02 -0.1344727247D+00
  0.1021000000D+02 -0.3151125777D+00
  0.3838000000D+01 -0.2428578325D+00
  0.7466000000D+00  0.1094382207D+01
 s    1  1.00
  0.2248000000D+00  0.1000000000D+01
 p    3  1.00
  0.1355000000D+02  0.5890567677D-01
  0.2917000000D+01  0.3204611067D+00
  0.7973000000D+00  0.7530420618D+00
 p    1  1.00
  0.2185000000D+00  0.1000000000D+01
 d    1  1.00
  0.8170000000D+00  0.1000000000D+01
  
  2 0
 s    3  1.00
  0.1301000000D+02  0.3349872639D-01
  0.1962000000D+01  0.2348008012D+00
  0.4446000000D+00  0.8136829579D+00
 s    1  1.00
  0.1220000000D+00  0.1000000000D+01
 p    1  1.00
  0.7270000000D+00  0.1000000000D+01
  
  4 0
 s    3  1.00
  0.1301000000D+02  0.3349872639D-01
  0.1962000000D+01  0.2348008012D+00
  0.4446000000D+00  0.8136829579D+00
 s    1  1.00
  0.1220000000D+00  0.1000000000D+01
 p    1  1.00
  0.7270000000D+00  0.1000000000D+01
 
 
[MO]
 Sym=      1.1
 Ene=     -15.6767
 Spin= Alpha
 Occup=    2.000000
1 0.70796356731648
2 0.001679982707966
3 -0.002672430447883
4 0.0
5 0.000651601695436
6 -0.001319969904636
7 0.0
8 -0.000712059212608
9 0.000333040335868
10 -0.000039540979686
11 0.000147485510864
12 -0.000107944531179
13 0.0
14 0.0
15 0.000168646967153
16 0.70796356731648
17 0.001679982707966
18 -0.002672430447883
19 0.0
20 -0.000651601695436
21 0.001319969904636
22 0.0
23 0.000712059212608
24 -0.000333040335868
25 -0.000039540979686
26 0.000147485510864
27 -0.000107944531179
28 0.0
29 0.0
30 0.000168646967153
31 -0.000254773546361
32 0.000754963104897
33 0.0
34 0.000423026650499
35 -0.000003945238357
36 -0.000254773546361
37 0.000754963104897
38 0.0
39 -0.000423026650499
40 0.000003945238357
 Sym=      1.3
 Ene=     -15.6754
 Spin= Alpha
 Occup=    2.000000
1 0.70821903175558
2 0.001791855752864
3 -0.004557622322859
4 0.0
5 0.000778193543762
6 -0.001357511958146
7 0.0
8 -0.000246220743339
9 0.001358416228304
10 -0.000514983790964
11 -0.000102041036706
12 0.000617024827670
13 0.0
14 0.0
15 0.000120966263013
16 -0.70821903175558
17 -0.001791855752864
18 0.004557622322859
19 0.0
20 0.000778193543762
21 -0.001357511958146
22 0.0
23 -0.000246220743339
24 0.001358416228304
25 0.000514983790964
26 0.000102041036706
27 -0.000617024827670
28 0.0
29 0.0
30 -0.000120966263013
31 -0.000127892023337
32 0.000246971357985
33 0.0
34 0.000504244613369
35 0.000129348794036
36 0.000127892023337
37 -0.000246971357985
38 0.0
39 0.000504244613369
40 0.000129348794036
 Sym=      2.1
 Ene=      -1.1717
 Spin= Alpha
 Occup=    2.000000
1 -0.008223189468828
2 0.27640447919336
3 0.20907334259854
4 0.0
5 0.10862811032131
6 0.079304298365176
7 0.0
8 0.027144566302212
9 0.059740707040893
10 -0.006566622368400
11 0.003863340609364
12 0.002703281759036
13 0.0
14 0.0
15 0.007708604325496
16 -0.008223189468828
17 0.27640447919336
18 0.20907334259854
19 0.0
20 -0.10862811032131
21 -0.079304298365176
22 0.0
23 -0.027144566302212
24 -0.059740707040893
25 -0.006566622368400
26 0.003863340609364
27 0.002703281759036
28 0.0
29 0.0
30 0.007708604325496
31 0.22924857548590
32 0.046681500446520
33 0.0
34 -0.029984278832384
35 -0.006705663112130
36 0.22924857548590
37 0.046681500446520
38 0.0
39 0.029984278832384
40 0.006705663112130
 Sym=      2.3
 Ene=      -0.9695
 Spin= Alpha
 Occup=    2.000000
1 -0.000962578851500
2 0.25865746943285
3 0.24109886215088
4 0.0
5 0.16209535404697
6 0.12733388568988
7 0.0
8 0.044471207626746
9 0.055031210226293
10 0.002116273291460
11 0.013604991194786
12 -0.015721264486246
13 0.0
14 0.0
15 -0.005308510302060
16 0.000962578851500
17 -0.25865746943285
18 -0.24109886215088
19 0.0
20 0.16209535404697
21 0.12733388568988
22 0.0
23 0.044471207626746
24 0.055031210226293
25 -0.002116273291460
26 -0.013604991194786
27 0.015721264486246
28 0.0
29 0.0
30 0.005308510302060
31 0.24597054746104
32 0.030388999940668
33 0.0
34 -0.034146978976240
35 -0.011011876440874
36 -0.24597054746104
37 -0.030388999940668
38 0.0
39 -0.034146978976240
40 -0.011011876440874
 Sym=      3.1
 Ene=      -0.9510
 Spin= Alpha
 Occup=    1.979034
1 -0.000913414625904
2 -0.16811766782615
3 -0.058400562563628
4 0.0
5 0.11070441679710
6 0.40969150205839
7 0.0
8 0.047865141876376
9 0.14941370549364
10 0.011611222906345
11 0.024571626390095
12 -0.036182849296441
13 0.0
14 0.0
15 0.011704920541303
16 -0.000913414625904
17 -0.16811766782615
18 -0.058400562563628
19 0.0
20 -0.11070441679710
21 -0.40969150205839
22 0.0
23 -0.047865141876376
24 -0.14941370549364
25 0.011611222906345
26 0.024571626390095
27 -0.036182849296441
28 0.0
29 0.0
30 0.011704920541303
31 0.14869912699089
32 0.069463228602087
33 0.0
34 -0.008864496825455
35 0.004504052601942
36 0.14869912699089
37 0.069463228602087
38 0.0
39 0.008864496825455
40 -0.004504052601942
 Sym=      3.3
 Ene=      -0.6307
 Spin= Alpha
 Occup=    1.811762
1 -0.003014386771557
2 -0.18765345069637
3 -0.28900138804464
4 0.0
5 0.33559326315200
6 -0.10278317541794
7 0.0
8 0.18828130929159
9 -0.070489506490550
10 -0.006850003858558
11 0.003623103723355
12 0.003226900135204
13 0.0
14 0.0
15 -0.026949069934751
16 0.003014386771557
17 0.18765345069637
18 0.28900138804464
19 0.0
20 0.33559326315200
21 -0.10278317541794
22 0.0
23 0.18828130929159
24 -0.070489506490550
25 0.006850003858558
26 -0.003623103723355
27 -0.003226900135204
28 0.0
29 0.0
30 0.026949069934751
31 0.11202368647321
32 0.031110618966234
33 0.0
34 -0.008060655755141
35 -0.012289119168804
36 -0.11202368647321
37 -0.031110618966234
38 0.0
39 -0.008060655755141
40 -0.012289119168804
 Sym=      1.2
 Ene=      -0.5572
 Spin= Alpha
 Occup=    1.791570
1 0.0
2 0.0
3 0.0
4 0.42759493701646
5 0.0
6 0.0
7 0.27145963034857
8 0.0
9 0.0
10 0.0
11 0.0
12 0.0
13 0.006676045772788
14 -0.034008693109607
15 0.0
16 0.0
17 0.0
18 0.0
19 0.42759493701646
20 0.0
21 0.0
22 0.27145963034857
23 0.0
24 0.0
25 0.0
26 0.0
27 0.0
28 -0.006676045772788
29 0.034008693109607
30 0.0
31 0.0
32 0.0
33 0.014479809762832
34 0.0
35 0.0
36 0.0
37 0.0
38 0.014479809762832
39 0.0
40 0.0
 Sym=      4.1
 Ene=      -0.2545
 Spin= Alpha
 Occup=    1.055218
1 0.005660922429343
2 -0.099014115319578
3 -0.29765463004581
4 0.0
5 0.35043309933297
6 -0.23474468704720
7 0.0
8 0.28001766234319
9 -0.15992011291371
10 -0.013521398568274
11 0.009848035382250
12 0.003673363186024
13 0.0
14 0.0
15 0.009054248570322
16 0.005660922429343
17 -0.099014115319578
18 -0.29765463004581
19 0.0
20 -0.35043309933297
21 0.23474468704720
22 0.0
23 -0.28001766234319
24 0.15992011291371
25 -0.013521398568274
26 0.009848035382250
27 0.003673363186024
28 0.0
29 0.0
30 0.009054248570322
31 0.21468612999624
32 0.067011190369704
33 0.0
34 -0.008789032887347
35 -0.013472306972808
36 0.21468612999624
37 0.067011190369704
38 0.0
39 0.008789032887347
40 0.013472306972808
 Sym=      1.4
 Ene=      -0.0530
 Spin= Alpha
 Occup=    0.797366
1 0.0
2 0.0
3 0.0
4 0.50398191964055
5 0.0
6 0.0
7 0.47799460633479
8 0.0
9 0.0
10 0.0
11 0.0
12 0.0
13 0.009440697911133
14 0.009717652507529
15 0.0
16 0.0
17 0.0
18 0.0
19 -0.50398191964055
20 0.0
21 0.0
22 -0.47799460633479
23 0.0
24 0.0
25 0.0
26 0.0
27 0.0
28 0.009440697911133
29 0.009717652507529
30 0.0
31 0.0
32 0.0
33 0.022642378040829
34 0.0
35 0.0
36 0.0
37 0.0
38 -0.022642378040829
39 0.0
40 0.0
 Sym=      4.3
 Ene=       0.1751
 Spin= Alpha
 Occup=    0.293814
1 0.005656331420395
2 -0.097640264849049
3 -0.49715209699374
4 0.0
5 -0.23555888731937
6 -0.042916801035053
7 0.0
8 -0.32181124564289
9 -0.17631962205279
10 -0.011686487994395
11 -0.002853144077310
12 0.014539632071705
13 0.0
14 0.0
15 0.020388997218123
16 -0.005656331420395
17 0.097640264849049
18 0.49715209699374
19 0.0
20 -0.23555888731937
21 -0.042916801035053
22 0.0
23 -0.32181124564289
24 -0.17631962205279
25 0.011686487994395
26 0.002853144077310
27 -0.014539632071705
28 0.0
29 0.0
30 -0.020388997218123
31 0.14651030652382
32 1.10576540629675
33 0.0
34 0.005147502882385
35 0.006641837594131
36 -0.14651030652382
37 -1.10576540629675
38 0.0
39 0.005147502882385
40 0.006641837594131
 Sym=      5.1
 Ene=       0.1720
 Spin= Alpha
 Occup=    0.247510
1 0.006152282121470
2 -0.11019665833776
3 -0.67415967445966
4 0.0
5 -0.21591272689691
6 -0.093643193184526
7 0.0
8 -0.39483174368877
9 -0.17148127687090
10 -0.001436891784809
11 0.007205410670065
12 -0.005768518885256
13 0.0
14 0.0
15 -0.005223646810250
16 0.006152282121470
17 -0.11019665833776
18 -0.67415967445966
19 0.0
20 0.21591272689691
21 0.093643193184526
22 0.0
23 0.39483174368877
24 0.17148127687090
25 -0.001436891784809
26 0.007205410670065
27 -0.005768518885256
28 0.0
29 0.0
30 -0.005223646810250
31 0.088928350267185
32 1.01442950268565
33 0.0
34 0.008320751750030
35 -0.009440269633158
36 0.088928350267185
37 1.01442950268565
38 0.0
39 -0.008320751750030
40 0.009440269633158
 Sym=      5.3
 Ene=       0.8652
 Spin= Alpha
 Occup=    0.023726
1 -0.099414475135421
2 -0.41010959194963
3 -0.46479823724012
4 0.0
5 0.048230029139750
6 0.80221801990168
7 0.0
8 -0.003795694051947
9 0.32612381346173
10 -0.003439904300634
11 0.021398203305702
12 -0.017958299005069
13 0.0
14 0.0
15 -0.024477742681147
16 0.099414475135421
17 0.41010959194963
18 0.46479823724012
19 0.0
20 0.048230029139750
21 0.80221801990168
22 0.0
23 -0.003795694051947
24 0.32612381346173
25 0.003439904300634
26 -0.021398203305702
27 0.017958299005069
28 0.0
29 0.0
30 0.024477742681147
31 -0.029660502137387
32 -0.014920702994236
33 0.0
34 -0.004197523870252
35 0.014016788356196
36 0.029660502137387
37 0.014920702994236
38 0.0
39 -0.004197523870252
40 0.014016788356196
 Sym=      6.3
 Ene=       0.7170
 Spin= Alpha
 Occup=    0.000000
1 -0.082085090627511
2 -0.15228388419501
3 1.88383743917921
4 0.0
5 -0.24114206127541
6 0.22077891248923
7 0.0
8 0.13931637615887
9 -1.43946451802770
10 -0.11039700776533
11 0.044271972099058
12 0.066125035666269
13 0.0
14 0.0
15 0.098359448701384
16 0.082085090627511
17 0.15228388419501
18 -1.88383743917921
19 0.0
20 -0.24114206127541
21 0.22077891248923
22 0.0
23 0.13931637615887
24 -1.43946451802770
25 0.11039700776533
26 -0.044271972099058
27 -0.066125035666269
28 0.0
29 0.0
30 -0.098359448701384
31 0.55431447760322
32 -0.52164874680440
33 0.0
34 0.13942619427359
35 0.12295605648911
36 -0.55431447760322
37 0.52164874680440
38 0.0
39 0.13942619427359
40 0.12295605648911
 Sym=      6.1
 Ene=       0.7587
 Spin= Alpha
 Occup=    0.000000
1 -0.092087403814769
2 -0.20346650850376
3 0.018762637554702
4 0.0
5 -0.10869834127662
6 0.32665903518212
7 0.0
8 -0.46751043173710
9 -0.61654582742259
10 -0.030783411284301
11 0.10748075903045
12 -0.076697347746144
13 0.0
14 0.0
15 0.011440725361593
16 -0.092087403814769
17 -0.20346650850376
18 0.018762637554702
19 0.0
20 0.10869834127662
21 -0.32665903518212
22 0.0
23 0.46751043173710
24 0.61654582742259
25 -0.030783411284301
26 0.10748075903045
27 -0.076697347746144
28 0.0
29 0.0
30 0.011440725361593
31 0.64186459287522
32 -0.41525026198697
33 0.0
34 0.084373796638925
35 -0.062933468522714
36 0.64186459287522
37 -0.41525026198697
38 0.0
39 -0.084373796638925
40 0.062933468522714
 Sym=      7.3
 Ene=       0.7855
 Spin= Alpha
 Occup=    0.000000
1 -0.000951799622393
2 -0.17675514713711
3 -2.08753797224928
4 0.0
5 0.073852785780841
6 -0.29383210155883
7 0.0
8 -0.078704342191773
9 1.95179754275490
10 0.005099809692626
11 0.11448973656048
12 -0.11958954625310
13 0.0
14 0.0
15 0.053076699701557
16 0.000951799622393
17 0.17675514713711
18 2.08753797224928
19 0.0
20 0.073852785780841
21 -0.29383210155883
22 0.0
23 -0.078704342191773
24 1.95179754275490
25 -0.005099809692626
26 -0.11448973656048
27 0.11958954625310
28 0.0
29 0.0
30 -0.053076699701557
31 0.58286195351017
32 -0.76585050430974
33 0.0
34 0.11840748317530
35 0.027491200513436
36 -0.58286195351017
37 0.76585050430974
38 0.0
39 0.11840748317530
40 0.027491200513436
 Sym=      7.1
 Ene=       0.8571
 Spin= Alpha
 Occup=    0.000000
1 -0.059046509369608
2 -0.12380789336565
3 -0.32126178193811
4 0.0
5 0.49495574326934
6 0.21137356967344
7 0.0
8 -0.69005684468380
9 -0.36878799369498
10 0.097556957869568
11 -0.082437188163281
12 -0.015119769706287
13 0.0
14 0.0
15 -0.008135301276988
16 -0.059046509369608
17 -0.12380789336565
18 -0.32126178193811
19 0.0
20 -0.49495574326934
21 -0.21137356967344
22 0.0
23 0.69005684468380
24 0.36878799369498
25 0.097556957869568
26 -0.082437188163281
27 -0.015119769706287
28 0.0
29 0.0
30 -0.008135301276988
31 -0.29786666697433
32 0.59144844328199
33 0.0
34 -0.21301913768819
35 -0.13546412809830
36 -0.29786666697433
37 0.59144844328199
38 0.0
39 0.21301913768819
40 0.13546412809830
 Sym=      2.2
 Ene=       0.8876
 Spin= Alpha
 Occup=    0.000000
1 0.0
2 0.0
3 0.0
4 -0.67435586014129
5 0.0
6 0.0
7 0.62423875971294
8 0.0
9 0.0
10 0.0
11 0.0
12 0.0
13 0.002500503983304
14 0.090453489182188
15 0.0
16 0.0
17 0.0
18 0.0
19 -0.67435586014129
20 0.0
21 0.0
22 0.62423875971294
23 0.0
24 0.0
25 0.0
26 0.0
27 0.0
28 -0.002500503983304
29 -0.090453489182188
30 0.0
31 0.0
32 0.0
33 0.005770041886773
34 0.0
35 0.0
36 0.0
37 0.0
38 0.005770041886773
39 0.0
40 0.0
 Sym=      8.1
 Ene=       0.9756
 Spin= Alpha
 Occup=    0.000000
1 0.029254091173317
2 0.15118234148955
3 -0.17248338359620
4 0.0
5 -0.29960070757973
6 0.38599045349449
7 0.0
8 1.08932163686004
9 -0.51998404956684
10 0.10438684531482
11 -0.065283924094666
12 -0.039102921220153
13 0.0
14 0.0
15 -0.033658889465259
16 0.029254091173317
17 0.15118234148955
18 -0.17248338359620
19 0.0
20 0.29960070757973
21 -0.38599045349449
22 0.0
23 -1.08932163686004
24 0.51998404956684
25 0.10438684531482
26 -0.065283924094666
27 -0.039102921220153
28 0.0
29 0.0
30 -0.033658889465259
31 -0.59418306776374
32 0.24786372992509
33 0.0
34 -0.031457794705750
35 0.11014332923670
36 -0.59418306776374
37 0.24786372992509
38 0.0
39 0.031457794705750
40 -0.11014332923670
 Sym=      2.4
 Ene=       0.9978
 Spin= Alpha
 Occup=    0.000000
1 0.0
2 0.0
3 0.0
4 -0.67829760763008
5 0.0
6 0.0
7 1.15219113089201
8 0.0
9 0.0
10 0.0
11 0.0
12 0.0
13 -0.000021407428304
14 -0.029566936823019
15 0.0
16 0.0
17 0.0
18 0.0
19 0.67829760763008
20 0.0
21 0.0
22 -1.15219113089201
23 0.0
24 0.0
25 0.0
26 0.0
27 0.0
28 -0.000021407428304
29 -0.029566936823019
30 0.0
31 0.0
32 0.0
33 -0.023212136095792
34 0.0
35 0.0
36 0.0
37 0.0
38 0.023212136095792
39 0.0
40 0.0
 Sym=      8.3
 Ene=       1.0319
 Spin= Alpha
 Occup=    0.000000
1 0.046245061450526
2 0.10612317671479
3 -0.86349685526215
4 0.0
5 -0.55523706350399
6 -0.067692721540492
7 0.0
8 1.06205149081935
9 1.33209581424601
10 0.015984256169552
11 0.045486083511141
12 -0.061470339680693
13 0.0
14 0.0
15 0.058025412303778
16 -0.046245061450526
17 -0.10612317671479
18 0.86349685526215
19 0.0
20 -0.55523706350399
21 -0.067692721540492
22 0.0
23 1.06205149081935
24 1.33209581424601
25 -0.015984256169552
26 -0.045486083511141
27 0.061470339680693
28 0.0
29 0.0
30 -0.058025412303778
31 -0.36484054835270
32 -0.89621881548033
33 0.0
34 0.20123502231385
35 -0.026823829444757
36 0.36484054835270
37 0.89621881548033
38 0.0
39 0.20123502231385
40 -0.026823829444757
 Sym=      9.1
 Ene=       1.2488
 Spin= Alpha
 Occup=    0.000000
1 -0.50772831224913
2 -1.13022440885388
3 1.74955410602612
4 0.0
5 -0.028122978697980
6 -0.11191089389821
7 0.0
8 0.77709142929846
9 0.25281937979301
10 0.13913496165531
11 -0.015095399094253
12 -0.12403956256106
13 0.0
14 0.0
15 0.023523699956615
16 -0.50772831224913
17 -1.13022440885388
18 1.74955410602612
19 0.0
20 0.028122978697980
21 0.11191089389821
22 0.0
23 -0.77709142929846
24 -0.25281937979301
25 0.13913496165531
26 -0.015095399094253
27 -0.12403956256106
28 0.0
29 0.0
30 0.023523699956615
31 -0.36525940934982
32 -0.75458643046006
33 0.0
34 0.17925996375091
35 0.032190301275288
36 -0.36525940934982
37 -0.75458643046006
38 0.0
39 -0.17925996375091
40 -0.032190301275288
 Sym=      9.3
 Ene=       1.3720
 Spin= Alpha
 Occup=    0.000000
1 0.31065008830339
2 0.66587551020049
3 -2.14591317366143
4 0.0
5 -0.009586684254265
6 -0.022015201254012
7 0.0
8 0.041949914233981
9 0.75631539106331
10 0.040713647449843
11 -0.028767322267283
12 -0.011946325182561
13 0.0
14 0.0
15 0.24492000051071
16 -0.31065008830339
17 -0.66587551020049
18 2.14591317366143
19 0.0
20 -0.009586684254265
21 -0.022015201254012
22 0.0
23 0.041949914233981
24 0.75631539106331
25 -0.040713647449843
26 0.028767322267283
27 0.011946325182561
28 0.0
29 0.0
30 -0.24492000051071
31 0.038642782381084
32 0.12842954371342
33 0.0
34 -0.26947659655051
35 0.36350193710395
36 -0.038642782381084
37 -0.12842954371342
38 0.0
39 -0.26947659655051
40 0.36350193710395
 Sym=      3.4
 Ene=       1.3862
 Spin= Alpha
 Occup=    0.000000
1 0.0
2 0.0
3 0.0
4 -0.045588645712683
5 0.0
6 0.0
7 -0.29743280593643
8 0.0
9 0.0
10 0.0
11 0.0
12 0.0
13 0.31985630229216
14 -0.004900124363749
15 0.0
16 0.0
17 0.0
18 0.0
19 0.045588645712683
20 0.0
21 0.0
22 0.29743280593643
23 0.0
24 0.0
25 0.0
26 0.0
27 0.0
28 0.31985630229216
29 -0.004900124363749
30 0.0
31 0.0
32 0.0
33 0.54187057760907
34 0.0
35 0.0
36 0.0
37 0.0
38 -0.54187057760907
39 0.0
40 0.0
 Sym=      3.2
 Ene=       1.4700
 Spin= Alpha
 Occup=    0.000000
1 0.0
2 0.0
3 0.0
4 0.061168340301475
5 0.0
6 0.0
7 -0.20151604675058
8 0.0
9 0.0
10 0.0
11 0.0
12 0.0
13 0.17700552440696
14 0.15753325766124
15 0.0
16 0.0
17 0.0
18 0.0
19 0.061168340301475
20 0.0
21 0.0
22 -0.20151604675058
23 0.0
24 0.0
25 0.0
26 0.0
27 0.0
28 -0.17700552440696
29 -0.15753325766124
30 0.0
31 0.0
32 0.0
33 0.61467413433219
34 0.0
35 0.0
36 0.0
37 0.0
38 0.61467413433219
39 0.0
40 0.0
 Sym=     10.3
 Ene=       1.6354
 Spin= Alpha
 Occup=    0.000000
1 -0.56045149076281
2 -1.13626044170052
3 4.66215043891267
4 0.0
5 0.066053989921473
6 -0.14698122482161
7 0.0
8 0.47402686835971
9 -1.86369424826624
10 0.13162471577717
11 -0.16644731207249
12 0.034822596295326
13 0.0
14 0.0
15 0.15786128961345
16 0.56045149076281
17 1.13626044170052
18 -4.66215043891267
19 0.0
20 0.066053989921473
21 -0.14698122482161
22 0.0
23 0.47402686835971
24 -1.86369424826624
25 -0.13162471577717
26 0.16644731207249
27 -0.034822596295326
28 0.0
29 0.0
30 -0.15786128961345
31 -0.58235282551781
32 -0.26763869269854
33 0.0
34 0.060981027561430
35 0.37564762462451
36 0.58235282551781
37 0.26763869269854
38 0.0
39 0.060981027561430
40 0.37564762462451
 Sym=     10.1
 Ene=       1.7808
 Spin= Alpha
 Occup=    0.000000
1 -0.022338436949787
2 -0.064050307189381
3 -0.32490756271704
4 0.0
5 0.13692297290861
6 0.014602023455483
7 0.0
8 -0.76447478486365
9 -0.48218118637163
10 0.14274598739885
11 -0.078734225351498
12 -0.064011762047354
13 0.0
14 0.0
15 0.10532827628530
16 -0.022338436949787
17 -0.064050307189381
18 -0.32490756271704
19 0.0
20 -0.13692297290861
21 -0.014602023455483
22 0.0
23 0.76447478486365
24 0.48218118637163
25 0.14274598739885
26 -0.078734225351498
27 -0.064011762047354
28 0.0
29 0.0
30 0.10532827628530
31 0.41448506721264
32 0.091388217112114
33 0.0
34 -0.23853435553429
35 0.69553496016173
36 0.41448506721264
37 0.091388217112114
38 0.0
39 0.23853435553429
40 -0.69553496016173