[Molden Format]
[Molpro variables]
_NUMVAR=  834.0000000000000    
_AVOGAD= 0.6022136736000000E+24
_BOLTZ= 0.1380658000000000E-22
_CLIGHT=  29979245800.00000    
_EV2006= 0.3674930886769165E-01
_EV= 0.3674932534394180E-01
_ENULL= 0.8854187817000000E-11
_KJOULE= 0.3808798324128737E-03
_KJOULE/MOL= 0.3808798324128737E-03
_CM= 0.4556335267302901E-05
_CM-1= 0.4556335267302901E-05
_DEB2SI= 0.3335641000000000E-29
_AMU2AU=  1822.888390000000    
_KCAL= 0.1593601117815568E-02
_KCAL/MOL= 0.1593601117815568E-02
_KELVIN2006= 0.3166828861084835E-05
_KELVIN= 0.3166814820820034E-05
_JOULE= 0.4359748200000000E-17
_HERTZ2006= 0.1519829850815779E-15
_HERTZ= 0.1519829846011223E-15
_HZ2006= 0.1519829850815779E-15
_HZ= 0.1519829846011223E-15
_JPCAL=  4.184000000000000    
_PLANCK= 0.6626075540000000E-33
_TOA2006= 0.5291772490000000    
_TOA= 0.5291772090000000    
_TOANG2006= 0.5291772490000000    
_TOANG= 0.5291772090000000    
_TORAD= 0.1745329251994330E-01
_TOCM=  219474.6306700000    
_TODEBYE=  2.541580000000000    
_TOEV2006=  27.21139610000000    
_TOE= 0.4803242000000000E-09
_TOEV=  27.21138390000000    
_TOHERTZ2006=  6579683899900000.    
_TOHERTZ=  6579683920700000.    
_TOHZ2006=  6579683899900000.    
_TOHZ=  6579683920700000.    
_TOK2006=  315773.3000000000    
_TOK=  315774.7000000000    
_TOKCAL=  627.5096000000000    
_TOKELVIN2006=  315773.3000000000    
_TOKELVIN=  315774.7000000000    
_TOKJ=  2625.500000000000    
_TOKJOULE=  2625.500000000000    
_TOKG= 0.1660565586000000E-26
_ANG2006=  1.889725988578923    
_ANG=  1.889726131421507    
_ANGSTROM2006=  1.889725988578923    
_ANGSTROM=  1.889726131421507    
_RPAREF=  0.000000000000000    
_RPADISS=  0.000000000000000    
_IGNORE_UNDEF=  2.000000000000000    
_STRICTCHECK=  0.000000000000000    
_SEW_ONEEL=  0.000000000000000    
_CPPDONE=FALSE
_DKROLL_DONE=  0.000000000000000    
_FOCKDONE=TRUE
_GRADONE=FALSE
_HESSDONE=FALSE
_INTDONE=TRUE
_SCFDONE=TRUE
_MODUL_BLOCK=FALSE
_MODUL_CUDA=FALSE
_MODUL_SLATER=FALSE
_MODUL_MRCC=FALSE
_MODUL_NBO6=FALSE
_MODUL_NECI=TRUE
_MODUL_AIMS=TRUE
_MRCC_EXEC=
_FITC_AO_SAVED=FALSE
_FITC_MO_SAVED=FALSE
_SHARED_FS=TRUE
_LSTYP=SEWARD
_INTYP=INTS
_GEOMTYP=ZMAT
_GRADTYP=ALASKA
_DIRECT=FALSE
_DKHO= -1.000000000000000    
_SYNCM=  0.000000000000000    
_BASIS=USERDEF
_ZORIENT=  1.000000000000000    
_NELEC=  46.00000000000000    
!SPIN=  0.000000000000000    
_QSDSTEP=  0.000000000000000    
_QSDIRC=  0.000000000000000    
_PROGRAM=MATROP
_CPUSTEP=  1.740000000000009    
_SYSSTEP= 0.9999999999999787E-02
_WALLSTEP= 0.1900000000000000    
!DFSCF=  0.000000000000000    
!SCSGRD=  0.000000000000000    
_BASINP=  610.0000000000000    
_CPUTOT=  144.7000000000000    
_DFTEXFAC=  1.000000000000000    
_DMX=  0.000000000000000    
_DMY=  0.000000000000000    
_DMZ=  0.000000000000000    
_DMX_SCF=  0.000000000000000    
_DMY_SCF=  0.000000000000000    
_DMZ_SCF=  0.000000000000000    
_EHOMO=-0.2436372778351047    
_ELUMO=-0.1118322523632330    
_ENUC=  209.7190764685884    
_EPS1= -15.65303726464836    
_EPS2= -15.64274431304022    
_GRADEXFAC=  9999.000000000000    
_GRADMETHOD=TRUE
_NMRMETHOD=  0.000000000000000    
!GRID_FREEZE= -1.000000000000000    
_ITERATIONS=  0.000000000000000    
_LASTNELEC=  10.00000000000000    
_LASTSPIN=  2.000000000000000    
_LASTSYM=  1.000000000000000    
_MPP_PROG=  0.000000000000000    
_NPROC_MPP=  1.000000000000000    
_NPROC_MPPX=  1.000000000000000    
_NPROC_SMP=  16.00000000000000    
_NUMSTEP=  0.000000000000000    
_ORBITAL=  2141.200000000000    
_PI=  3.141592653589793    
_SEIG_MIN= 0.3661020316633453E-02
_SEWPROP=TRUE
_STATUS=  0.000000000000000    
_SYSTOT=  9.059999999999999    
_VERSION=  2012001.000000000    
_WALLTOT=  70.42000000000000    
_DATE=24-Jan-19
_LASTORB=MCSCF
_MACHINE=Linux-4.9.0-8-amd64/nympha18.meta.zcu.cz(x86_64) (16 PROC) 64 bit serial version
_OUTPUT=/auto/brno2/home/masiz4am/git/UKRmol-in/tests/suite/Ci_scattering_CC/molpro.xml
_PGROUP=Ci
_TIME=16:44:23
_LIBMOL=/afs/ics.muni.cz/software/molpro-2012.1/molprop_2012_1_Linux_x86_64_i8/lib/
!VIBCNT=  0.000000000000000    
!RGHFCNT=  0.000000000000000    
!SURFREC=  0.000000000000000    
!POLYREC=  0.000000000000000    
!DIPREC=  0.000000000000000    
!VSCFREC=  0.000000000000000    
!VCIREC=  0.000000000000000    
!PVCIREC=  0.000000000000000    
!VMP2REC=  0.000000000000000    
!VMCSCFREC=  0.000000000000000    
!VMRCIREC=  0.000000000000000    
!VIBINFO=  0.000000000000000    
!GAREC=  0.000000000000000    
!SCFORB=  21002.00000000000    
!MCORB=  21412.00000000000    
!NEWMOL= -1.000000000000000    
!NEWSYM= -1.000000000000000    
_SLFILES=slscratch
_NGSSTO=  9.000000000000000    
_SIN=SIN
_COS=COS
_TAN=TAN
_ACOS=ACOS
_ASIN=ASIN
_ATAN=ATAN
_COSH=COSH
_SINH=SINH
_TANH=TANH
_ABS=ABS
_MOD=MOD
_ERF=ERF
_REFC=REFC
_ERFC=ERFC
_HYPOT=HYPOT
_J0=J0
_J1=J1
_JN=JN
_GAMMA=GAMMA
_LGAMMA=LGAMMA
_Y0=Y0
_Y1=Y1
_YN=YN
_EXP=EXP
_LOG=LOG
_LOG10=LOG10
_SQRT=SQRT
_INT=INT
_NINT=NINT
_MAX=MAX
_MIN=MIN
_COSMO=  0.000000000000000    
_COSMOIT=  0.000000000000000    
_COSMOES=  0.000000000000000    
_COSMOEDS=  0.000000000000000    
_COSMOEC=  0.000000000000000    
_COSMOEDCORR=  0.000000000000000    
_FEPSI=  1.000000000000000    
_SL_IsMM=  0.000000000000000    
_SL_NSYM=  2.000000000000000    
_SL_System_BitSw=  0.000000000000000    
_SL_Unique_atoms=  0.000000000000000    
_SL_GRAD=  0.000000000000000    
_SL_MAXUPD_Hess=  5.000000000000000    
_SL_N_PRINT_COD=  5.000000000000000    
_SL_PRINT_CODES=  0.000000000000000    
_SL_BasType=  0.000000000000000    
_SL_Energy_Pred=  0.000000000000000    
_SL_New_Coords=  0.000000000000000    
_SL_Total_Nuclea=  0.000000000000000    
_SL_Highest_Mltp=  0.000000000000000    
_SL_Ref_Geom=  0.000000000000000    
_SL_Symmetry_ope=  1.000000000000000    
_SL_agrad=  0.000000000000000    
_SL_GrdMax=  0.000000000000000    
_SL_GrdNorm=  0.000000000000000    
_SL_GrdRMS=  0.000000000000000    
!LATTICE= -1.000000000000000    
!NEWLATTICE=  0.000000000000000    
!LATGRAD_VAR=FALSE
!SEW_LATTICE=  1.000000000000000    
!LOCAL=  0.000000000000000    
!SAVEDOM= -1.000000000000000    
!RESTDOM= -1.000000000000000    
!SAVEDOM_HF= -1.000000000000000    
!RESTDOM_HF= -1.000000000000000    
!HESSREC=  0.000000000000000    
!FREQREC=  0.000000000000000    
!NMODREC=  0.000000000000000    
!GTASKS=  0.000000000000000    
!HTASKS=  0.000000000000000    
!THRCHG= 0.1000000000000000    
!DEBUG= -1.000000000000000    
!CFIT_CPHF=  0.000000000000000    
!RDOMAUX_CPHF=  3.000000000000000    
!THRAO_CPHF= 0.1000000000000000E-09
!THRMO_CPHF= 0.1000000000000000E-08
!THROV_CPHF= 0.1000000000000000E-11
!THRSW_CPHF= 0.1000000000000000E-09
!THRPROD_CPHF= 0.1000000000000000E-08
!THRAOPR_CPHF= 0.1000000000000000E-11
!CFIT_SCFGRD=  0.000000000000000    
!RDOMAUX_SCFGRD=  5.000000000000000    
!THRAO_SCFGRD= 0.1000000000000000E-09
!THRMO_SCFGRD= 0.1000000000000000E-08
!THROV_SCFGRD= 0.1000000000000000E-11
!THRSW_SCFGRD= 0.1000000000000000E-09
!THRPROD_SCFGRD= 0.1000000000000000E-08
!THRAOPR_SCFGRD= 0.1000000000000000E-11
!LOCFIT_SCF=  0.000000000000000    
!LOCFIT_MP2= -1.000000000000000    
_RIDOM=  0.000000000000000    
!CC2_METHOD=  0.000000000000000    
_BASIS2006=FALSE
_SVDDEL= -1.000000000000000    
_SVDDELA= -1.000000000000000    
_SVDDELP= -1.000000000000000    
_SVDDELF= -1.000000000000000    
_SVDDELS= -1.000000000000000    
_SVDDEL_ABS= -1.000000000000000    
_SVDDELA_ABS= -1.000000000000000    
_SVDDELP_ABS= -1.000000000000000    
_SVDDELF_ABS= -1.000000000000000    
_SVDDELS_ABS= -1.000000000000000    
_MAXBASIS=  0.000000000000000    
!OPT_CONICAL=  0.000000000000000    
!CLEARSP_JGRID=  0.000000000000000    
_4EXT_NDISKS=  1.000000000000000    
!ZMP=  0.000000000000000    
_MAXIT_ZMP=  500.0000000000000    
_MAXDIS_ZMP=  100.0000000000000    
_ACCU_ZMP=  14.00000000000000    
_SHIFTA_ZMP= -100.0000000000000    
!EMBEDFLAG=  1.000000000000000    
!EMBED=FALSE
!EMBED_F12=FALSE
!EMBEDNUC=  0.000000000000000    
_EMBEDENERGY=  0.000000000000000    
_KSPACETIME=  0.000000000000000    
_RSPACETIME=  0.000000000000000    
!EMBED_DFC=FALSE
!NUM_VOIDS=  0.000000000000000    
_IBODY=  0.000000000000000    
_EMBE_TOTAL=  0.000000000000000    
_EMBE_HF=  0.000000000000000    
_EMBE_CORR=  0.000000000000000    
!EDFT=  0.000000000000000    
_IFASTLATGRAD=  0.000000000000000    
_SINDEX=  0.000000000000000    
M_NAME=CASSCF(10,8)
M_CLOSED=  10.00000000000000    
M_OCC=  15.00000000000000    
GX1= -1.829065784000000    
GY1=  2.251986461000000    
GZ1= -2.936634186000000    
GX2= -3.551551023000000    
GY2=-0.8326132710000000    
GZ2= 0.7694964230000000    
GX3= -1.239849221000000    
GY3= 0.7377490260000000    
GZ3= 0.1065805460000000    
GX4= -5.233407153000000    
GY4= 0.3520559520000000    
GZ4= 0.7284893690000001    
GX5= -3.802695607000000    
GY5= -2.368771527000000    
GZ5=-0.5822245770000000    
GX6= -3.351618013000000    
GY6= -1.631211473000000    
GZ6=  2.654309124000000    
GX7= -1.002688610000000    
GY7=  2.291859679000000    
GZ7=  1.429388738000000    
GX8=  1.829065784000000    
GY8= -2.251986461000000    
GZ8=  2.936634186000000    
GX9=  3.551551023000000    
GY9= 0.8326132710000000    
GZ9=-0.7694964230000000    
GX10=  1.239849221000000    
GY10=-0.7377490260000000    
GZ10=-0.1065805460000000    
GX11=  5.233407153000000    
GY11=-0.3520559520000000    
GZ11=-0.7284893690000001    
GX12=  3.802695607000000    
GY12=  2.368771527000000    
GZ12= 0.5822245770000000    
GX13=  3.351618013000000    
GY13=  1.631211473000000    
GZ13= -2.654309124000000    
GX14=  1.002688610000000    
GY14= -2.291859679000000    
GZ14= -1.429388738000000    
_TRDMX=  0.000000000000000    
_TRDMY=  0.000000000000000    
_TRDMZ=  0.000000000000000    
_QMXX=  1.378357143952741    
_TRQMXX=-0.3533749296282564E-01
_QMYY=  2.279348404025455    
_TRQMYY= 0.1849327031050623E-01
_QMZZ= -3.657705547978068    
_TRQMZZ= 0.1684422265231922E-01
_QMXY=  4.151854652300827    
_TRQMXY=-0.8007889099643106E-01
_QMXZ= -4.039223118145241    
_TRQMXZ=-0.1898589735234790E-01
_QMYZ=  7.486397651182671    
_TRQMYZ= 0.1922914157812117E-01
_QMRR= -90.12292726984879    
_TRQMRR= 0.1022395557328326E-01
[Atoms] Angs
N     1    7        -0.9678999267        1.1916999101       -1.5539998824
C     2    6        -1.8793998580       -0.4405999669        0.4071999695
C     3    6        -0.6560999503        0.3903999705        0.0563999959
H     4    1        -2.7693997908        0.1862999861        0.3854999711
H     5    1        -2.0122998480       -1.2534999054       -0.3080999767
H     6    1        -1.7735998658       -0.8631999346        1.4045998941
H     7    1        -0.5305999601        1.2127999084        0.7563999430
N     8    7         0.9678999267       -1.1916999101        1.5539998824
C     9    6         1.8793998580        0.4405999669       -0.4071999695
C    10    6         0.6560999503       -0.3903999705       -0.0563999959
H    11    1         2.7693997908       -0.1862999861       -0.3854999711
H    12    1         2.0122998480        1.2534999054        0.3080999767
H    13    1         1.7735998658        0.8631999346       -1.4045998941
H    14    1         0.5305999601       -1.2127999084       -0.7563999430
[GTO]
  1 0
 s    8  1.00
  0.9046000000D+04  0.6996174134D-03
  0.1357000000D+04  0.5386054630D-02
  0.3093000000D+03  0.2739102119D-01
  0.8773000000D+02  0.1031505920D+00
  0.2856000000D+02  0.2785706633D+00
  0.1021000000D+02  0.4482948495D+00
  0.3838000000D+01  0.2780859284D+00
  0.7466000000D+00  0.1543156123D-01
 s    8  1.00
  0.9046000000D+04 -0.3049900960D-03
  0.1357000000D+04 -0.2408026379D-02
  0.3093000000D+03 -0.1194444873D-01
  0.8773000000D+02 -0.4892599291D-01
  0.2856000000D+02 -0.1344727247D+00
  0.1021000000D+02 -0.3151125777D+00
  0.3838000000D+01 -0.2428578325D+00
  0.7466000000D+00  0.1094382207D+01
 s    1  1.00
  0.2248000000D+00  0.1000000000D+01
 p    3  1.00
  0.1355000000D+02  0.5890567677D-01
  0.2917000000D+01  0.3204611067D+00
  0.7973000000D+00  0.7530420618D+00
 p    1  1.00
  0.2185000000D+00  0.1000000000D+01
 d    1  1.00
  0.8170000000D+00  0.1000000000D+01
  
  8 0
 s    8  1.00
  0.9046000000D+04  0.6996174134D-03
  0.1357000000D+04  0.5386054630D-02
  0.3093000000D+03  0.2739102119D-01
  0.8773000000D+02  0.1031505920D+00
  0.2856000000D+02  0.2785706633D+00
  0.1021000000D+02  0.4482948495D+00
  0.3838000000D+01  0.2780859284D+00
  0.7466000000D+00  0.1543156123D-01
 s    8  1.00
  0.9046000000D+04 -0.3049900960D-03
  0.1357000000D+04 -0.2408026379D-02
  0.3093000000D+03 -0.1194444873D-01
  0.8773000000D+02 -0.4892599291D-01
  0.2856000000D+02 -0.1344727247D+00
  0.1021000000D+02 -0.3151125777D+00
  0.3838000000D+01 -0.2428578325D+00
  0.7466000000D+00  0.1094382207D+01
 s    1  1.00
  0.2248000000D+00  0.1000000000D+01
 p    3  1.00
  0.1355000000D+02  0.5890567677D-01
  0.2917000000D+01  0.3204611067D+00
  0.7973000000D+00  0.7530420618D+00
 p    1  1.00
  0.2185000000D+00  0.1000000000D+01
 d    1  1.00
  0.8170000000D+00  0.1000000000D+01
  
  2 0
 s    8  1.00
  0.6665000000D+04  0.6915839628D-03
  0.1000000000D+04  0.5325796153D-02
  0.2280000000D+03  0.2706072104D-01
  0.6471000000D+02  0.1016568461D+00
  0.2106000000D+02  0.2745748236D+00
  0.7495000000D+01  0.4482943189D+00
  0.2797000000D+01  0.2849026107D+00
  0.5215000000D+00  0.1519485921D-01
 s    8  1.00
  0.6665000000D+04 -0.2932696527D-03
  0.1000000000D+04 -0.2318035474D-02
  0.2280000000D+03 -0.1149978604D-01
  0.6471000000D+02 -0.4682672701D-01
  0.2106000000D+02 -0.1284661688D+00
  0.7495000000D+01 -0.3012662725D+00
  0.2797000000D+01 -0.2556307023D+00
  0.5215000000D+00  0.1093793361D+01
 s    1  1.00
  0.1596000000D+00  0.1000000000D+01
 p    3  1.00
  0.9439000000D+01  0.5697925159D-01
  0.2002000000D+01  0.3132072115D+00
  0.5456000000D+00  0.7603767417D+00
 p    1  1.00
  0.1517000000D+00  0.1000000000D+01
 d    1  1.00
  0.5500000000D+00  0.1000000000D+01
  
  9 0
 s    8  1.00
  0.6665000000D+04  0.6915839628D-03
  0.1000000000D+04  0.5325796153D-02
  0.2280000000D+03  0.2706072104D-01
  0.6471000000D+02  0.1016568461D+00
  0.2106000000D+02  0.2745748236D+00
  0.7495000000D+01  0.4482943189D+00
  0.2797000000D+01  0.2849026107D+00
  0.5215000000D+00  0.1519485921D-01
 s    8  1.00
  0.6665000000D+04 -0.2932696527D-03
  0.1000000000D+04 -0.2318035474D-02
  0.2280000000D+03 -0.1149978604D-01
  0.6471000000D+02 -0.4682672701D-01
  0.2106000000D+02 -0.1284661688D+00
  0.7495000000D+01 -0.3012662725D+00
  0.2797000000D+01 -0.2556307023D+00
  0.5215000000D+00  0.1093793361D+01
 s    1  1.00
  0.1596000000D+00  0.1000000000D+01
 p    3  1.00
  0.9439000000D+01  0.5697925159D-01
  0.2002000000D+01  0.3132072115D+00
  0.5456000000D+00  0.7603767417D+00
 p    1  1.00
  0.1517000000D+00  0.1000000000D+01
 d    1  1.00
  0.5500000000D+00  0.1000000000D+01
  
  3 0
 s    8  1.00
  0.6665000000D+04  0.6915839628D-03
  0.1000000000D+04  0.5325796153D-02
  0.2280000000D+03  0.2706072104D-01
  0.6471000000D+02  0.1016568461D+00
  0.2106000000D+02  0.2745748236D+00
  0.7495000000D+01  0.4482943189D+00
  0.2797000000D+01  0.2849026107D+00
  0.5215000000D+00  0.1519485921D-01
 s    8  1.00
  0.6665000000D+04 -0.2932696527D-03
  0.1000000000D+04 -0.2318035474D-02
  0.2280000000D+03 -0.1149978604D-01
  0.6471000000D+02 -0.4682672701D-01
  0.2106000000D+02 -0.1284661688D+00
  0.7495000000D+01 -0.3012662725D+00
  0.2797000000D+01 -0.2556307023D+00
  0.5215000000D+00  0.1093793361D+01
 s    1  1.00
  0.1596000000D+00  0.1000000000D+01
 p    3  1.00
  0.9439000000D+01  0.5697925159D-01
  0.2002000000D+01  0.3132072115D+00
  0.5456000000D+00  0.7603767417D+00
 p    1  1.00
  0.1517000000D+00  0.1000000000D+01
 d    1  1.00
  0.5500000000D+00  0.1000000000D+01
  
 10 0
 s    8  1.00
  0.6665000000D+04  0.6915839628D-03
  0.1000000000D+04  0.5325796153D-02
  0.2280000000D+03  0.2706072104D-01
  0.6471000000D+02  0.1016568461D+00
  0.2106000000D+02  0.2745748236D+00
  0.7495000000D+01  0.4482943189D+00
  0.2797000000D+01  0.2849026107D+00
  0.5215000000D+00  0.1519485921D-01
 s    8  1.00
  0.6665000000D+04 -0.2932696527D-03
  0.1000000000D+04 -0.2318035474D-02
  0.2280000000D+03 -0.1149978604D-01
  0.6471000000D+02 -0.4682672701D-01
  0.2106000000D+02 -0.1284661688D+00
  0.7495000000D+01 -0.3012662725D+00
  0.2797000000D+01 -0.2556307023D+00
  0.5215000000D+00  0.1093793361D+01
 s    1  1.00
  0.1596000000D+00  0.1000000000D+01
 p    3  1.00
  0.9439000000D+01  0.5697925159D-01
  0.2002000000D+01  0.3132072115D+00
  0.5456000000D+00  0.7603767417D+00
 p    1  1.00
  0.1517000000D+00  0.1000000000D+01
 d    1  1.00
  0.5500000000D+00  0.1000000000D+01
  
  4 0
 s    3  1.00
  0.1301000000D+02  0.3349872639D-01
  0.1962000000D+01  0.2348008012D+00
  0.4446000000D+00  0.8136829579D+00
 s    1  1.00
  0.1220000000D+00  0.1000000000D+01
 p    1  1.00
  0.7270000000D+00  0.1000000000D+01
  
 11 0
 s    3  1.00
  0.1301000000D+02  0.3349872639D-01
  0.1962000000D+01  0.2348008012D+00
  0.4446000000D+00  0.8136829579D+00
 s    1  1.00
  0.1220000000D+00  0.1000000000D+01
 p    1  1.00
  0.7270000000D+00  0.1000000000D+01
  
  5 0
 s    3  1.00
  0.1301000000D+02  0.3349872639D-01
  0.1962000000D+01  0.2348008012D+00
  0.4446000000D+00  0.8136829579D+00
 s    1  1.00
  0.1220000000D+00  0.1000000000D+01
 p    1  1.00
  0.7270000000D+00  0.1000000000D+01
  
 12 0
 s    3  1.00
  0.1301000000D+02  0.3349872639D-01
  0.1962000000D+01  0.2348008012D+00
  0.4446000000D+00  0.8136829579D+00
 s    1  1.00
  0.1220000000D+00  0.1000000000D+01
 p    1  1.00
  0.7270000000D+00  0.1000000000D+01
  
  6 0
 s    3  1.00
  0.1301000000D+02  0.3349872639D-01
  0.1962000000D+01  0.2348008012D+00
  0.4446000000D+00  0.8136829579D+00
 s    1  1.00
  0.1220000000D+00  0.1000000000D+01
 p    1  1.00
  0.7270000000D+00  0.1000000000D+01
  
 13 0
 s    3  1.00
  0.1301000000D+02  0.3349872639D-01
  0.1962000000D+01  0.2348008012D+00
  0.4446000000D+00  0.8136829579D+00
 s    1  1.00
  0.1220000000D+00  0.1000000000D+01
 p    1  1.00
  0.7270000000D+00  0.1000000000D+01
  
  7 0
 s    3  1.00
  0.1301000000D+02  0.3349872639D-01
  0.1962000000D+01  0.2348008012D+00
  0.4446000000D+00  0.8136829579D+00
 s    1  1.00
  0.1220000000D+00  0.1000000000D+01
 p    1  1.00
  0.7270000000D+00  0.1000000000D+01
  
 14 0
 s    3  1.00
  0.1301000000D+02  0.3349872639D-01
  0.1962000000D+01  0.2348008012D+00
  0.4446000000D+00  0.8136829579D+00
 s    1  1.00
  0.1220000000D+00  0.1000000000D+01
 p    1  1.00
  0.7270000000D+00  0.1000000000D+01
 
 
[MO]
 Sym=      1.1
 Ene=     -15.6530
 Spin= Alpha
 Occup=    2.000000
1 0.70764637768023
2 0.000163277467671
3 -0.003197096171642
4 0.000179201892438
5 -0.000439147942565
6 0.000872954044026
7 -0.000174157429661
8 0.000438301770130
9 -0.000914271066105
10 0.000155248580599
11 -0.000104910524136
12 -0.000050338056463
13 -0.000097068545368
14 -0.000095412520069
15 -0.000045053963904
16 0.70764637768023
17 0.000163277467671
18 -0.003197096171642
19 -0.000179201892438
20 0.000439147942565
21 -0.000872954044026
22 0.000174157429661
23 -0.000438301770130
24 0.000914271066105
25 0.000155248580599
26 -0.000104910524136
27 -0.000050338056463
28 -0.000097068545368
29 -0.000095412520069
30 -0.000045053963904
31 -0.000032139176721
32 -0.000083774940611
33 -0.000184442458014
34 -0.000050072590930
35 -0.000055338393725
36 0.000035324532243
37 0.000200545859550
38 0.000221395349504
39 -0.000192556043082
40 -0.000009699856743
41 0.000005066197005
42 0.000004633659738
43 0.000056287311934
44 0.000011923177362
45 -0.000009321232466
46 -0.000032139176721
47 -0.000083774940611
48 -0.000184442458014
49 0.000050072590930
50 0.000055338393725
51 -0.000035324532243
52 -0.000200545859550
53 -0.000221395349504
54 0.000192556043082
55 -0.000009699856743
56 0.000005066197005
57 0.000004633659738
58 0.000056287311934
59 0.000011923177362
60 -0.000009321232466
61 -0.000169722021369
62 -0.000285033902009
63 0.000963839935587
64 -0.000090611549339
65 0.000186565273617
66 -0.000221823857152
67 -0.000023429518053
68 0.000496652130121
69 -0.001133068849800
70 -0.000087390950508
71 -0.000027230104125
72 0.000114621054633
73 -0.000033380838175
74 0.000003598915432
75 -0.000087076316587
76 -0.000169722021369
77 -0.000285033902009
78 0.000963839935587
79 0.000090611549339
80 -0.000186565273617
81 0.000221823857152
82 0.000023429518053
83 -0.000496652130121
84 0.001133068849800
85 -0.000087390950508
86 -0.000027230104125
87 0.000114621054633
88 -0.000033380838175
89 0.000003598915432
90 -0.000087076316587
91 -0.000012049581251
92 0.000059725564824
93 -0.000006187195413
94 -0.000061505598811
95 0.000032405973453
96 -0.000012049581251
97 0.000059725564824
98 0.000006187195413
99 0.000061505598811
100 -0.000032405973453
101 -0.000023171343867
102 -0.000023450776894
103 -0.000048614437508
104 -0.000037421992231
105 0.000038992538075
106 -0.000023171343867
107 -0.000023450776894
108 0.000048614437508
109 0.000037421992231
110 -0.000038992538075
111 0.000020128646032
112 0.000521118451238
113 0.000023504980077
114 0.000027451627729
115 -0.000063723925855
116 0.000020128646032
117 0.000521118451238
118 -0.000023504980077
119 -0.000027451627729
120 0.000063723925855
121 -0.000157463597665
122 0.000102536404581
123 -0.000028272958600
124 -0.000030195202557
125 0.000028938426095
126 -0.000157463597665
127 0.000102536404581
128 0.000028272958600
129 0.000030195202557
130 -0.000028938426095
 Sym=      1.2
 Ene=     -15.6427
 Spin= Alpha
 Occup=    2.000000
1 0.70750112765381
2 -0.008885674795017
3 -0.014390753730754
4 0.000460345737078
5 -0.001237125894175
6 0.001995070378946
7 -0.000132856182560
8 0.000092145803192
9 -0.000370624334340
10 0.000160585124808
11 -0.000060634685749
12 -0.000099950439059
13 -0.000045881805492
14 -0.000124214337948
15 0.000011527784938
16 -0.70750112765381
17 0.008885674795017
18 0.014390753730754
19 0.000460345737078
20 -0.001237125894175
21 0.001995070378946
22 -0.000132856182560
23 0.000092145803192
24 -0.000370624334340
25 -0.000160585124808
26 0.000060634685749
27 0.000099950439059
28 0.000045881805492
29 0.000124214337948
30 -0.000011527784938
31 -0.000094302401497
32 0.000005919578590
33 0.000620414960066
34 0.000243571240310
35 0.000442359581796
36 -0.000479559005982
37 0.000302488811611
38 0.000343643409987
39 -0.000354402399615
40 0.000122276952031
41 -0.000031545368085
42 -0.000090731583946
43 -0.000018790129058
44 0.000036989162665
45 0.000029820406094
46 0.000094302401497
47 -0.000005919578590
48 -0.000620414960066
49 0.000243571240310
50 0.000442359581796
51 -0.000479559005982
52 0.000302488811611
53 0.000343643409987
54 -0.000354402399615
55 -0.000122276952031
56 0.000031545368085
57 0.000090731583946
58 0.000018790129058
59 -0.000036989162665
60 -0.000029820406094
61 -0.000044711593559
62 -0.000321621513343
63 0.001315497377022
64 -0.000423054065598
65 -0.000830362714468
66 0.000136492597875
67 -0.000285158428393
68 0.000496295304170
69 -0.001342638431265
70 0.000019690311843
71 0.000068446702055
72 -0.000088137013898
73 0.000003339167243
74 0.000024373908680
75 0.000033112322349
76 0.000044711593559
77 0.000321621513343
78 -0.001315497377022
79 -0.000423054065598
80 -0.000830362714468
81 0.000136492597875
82 -0.000285158428393
83 0.000496295304170
84 -0.001342638431265
85 -0.000019690311843
86 -0.000068446702055
87 0.000088137013898
88 -0.000003339167243
89 -0.000024373908680
90 -0.000033112322349
91 0.000011020639209
92 -0.000046132196581
93 -0.000046229879304
94 -0.000007782116506
95 0.000037452086546
96 -0.000011020639209
97 0.000046132196581
98 -0.000046229879304
99 -0.000007782116506
100 0.000037452086546
101 -0.000076256872864
102 -0.000054087264799
103 -0.000000806588401
104 -0.000019353014084
105 0.000037458611262
106 0.000076256872864
107 0.000054087264799
108 -0.000000806588401
109 -0.000019353014084
110 0.000037458611262
111 -0.000397621258314
112 -0.000048784219842
113 0.000010665111889
114 0.000015283309241
115 0.000017856585202
116 0.000397621258314
117 0.000048784219842
118 0.000010665111889
119 0.000015283309241
120 0.000017856585202
121 -0.000627415900023
122 -0.000084742264328
123 0.000033509233654
124 -0.000072092401005
125 0.000158935676795
126 0.000627415900023
127 0.000084742264328
128 0.000033509233654
129 -0.000072092401005
130 0.000158935676795
 Sym=      2.1
 Ene=     -11.3276
 Spin= Alpha
 Occup=    2.000000
1 -0.000200707858340
2 -0.000305352152732
3 0.001599262678831
4 -0.000007985414756
5 0.000066332060834
6 -0.000108282215036
7 0.000090084779729
8 -0.000443254174533
9 0.000531475518265
10 -0.000011811942500
11 0.000027126115702
12 -0.000015314173202
13 -0.000029510503519
14 -0.000002149026048
15 -0.000037418170309
16 -0.000200707858340
17 -0.000305352152732
18 0.001599262678831
19 0.000007985414756
20 -0.000066332060834
21 0.000108282215036
22 -0.000090084779729
23 0.000443254174533
24 -0.000531475518265
25 -0.000011811942500
26 0.000027126115702
27 -0.000015314173202
28 -0.000029510503519
29 -0.000002149026048
30 -0.000037418170309
31 0.002362863325023
32 -0.000269111021991
33 0.002509547823485
34 0.000040120845451
35 0.000077768464342
36 0.000016324806813
37 0.001019432825137
38 0.000373901708397
39 -0.000773259137317
40 0.000037649459098
41 -0.000056505890975
42 0.000018856431877
43 -0.000136480886485
44 0.000022909640126
45 -0.000024536392594
46 0.002362863325023
47 -0.000269111021991
48 0.002509547823485
49 -0.000040120845451
50 -0.000077768464342
51 -0.000016324806813
52 -0.001019432825137
53 -0.000373901708397
54 0.000773259137317
55 0.000037649459098
56 -0.000056505890975
57 0.000018856431877
58 -0.000136480886485
59 0.000022909640126
60 -0.000024536392594
61 0.70874757481839
62 0.003121554697955
63 -0.006788248057019
64 0.000210746937866
65 -0.000036870842068
66 -0.000032884668188
67 0.001236545911914
68 0.000485551744784
69 0.001246338231915
70 0.000008695830944
71 0.000079520467229
72 -0.000088216298173
73 0.000155247312603
74 -0.000069175856107
75 0.000392137597561
76 0.70874757481839
77 0.003121554697955
78 -0.006788248057019
79 -0.000210746937866
80 0.000036870842068
81 0.000032884668188
82 -0.001236545911914
83 -0.000485551744784
84 -0.001246338231915
85 0.000008695830944
86 0.000079520467229
87 -0.000088216298173
88 0.000155247312603
89 -0.000069175856107
90 0.000392137597561
91 -0.000128260556082
92 0.000255013022309
93 0.000048221239690
94 0.000064959086337
95 0.000029004794228
96 -0.000128260556082
97 0.000255013022309
98 -0.000048221239690
99 -0.000064959086337
100 -0.000029004794228
101 -0.000158496390630
102 -0.000183316526102
103 0.000034721752724
104 0.000059013125251
105 0.000006899909523
106 -0.000158496390630
107 -0.000183316526102
108 -0.000034721752724
109 -0.000059013125251
110 -0.000006899909523
111 -0.000131128273014
112 0.000125162438728
113 -0.000031832188178
114 0.000032463665513
115 0.000012819562558
116 -0.000131128273014
117 0.000125162438728
118 0.000031832188178
119 -0.000032463665513
120 -0.000012819562558
121 -0.000087642016901
122 0.000842652916216
123 0.000099216747784
124 0.000144943132959
125 0.000132248702370
126 -0.000087642016901
127 0.000842652916216
128 -0.000099216747784
129 -0.000144943132959
130 -0.000132248702370
 Sym=      2.2
 Ene=     -11.3270
 Spin= Alpha
 Occup=    2.000000
1 -0.000128858153102
2 -0.000170757934529
3 0.001243706268604
4 0.000077594585313
5 -0.000176280028269
6 0.000309749282553
7 0.000179024028143
8 -0.000426973140485
9 0.000678190191319
10 -0.000049002381218
11 0.000020702053557
12 0.000028300327662
13 0.000011656900500
14 0.000029942116444
15 -0.000043810158967
16 0.000128858153102
17 0.000170757934529
18 -0.001243706268604
19 0.000077594585313
20 -0.000176280028269
21 0.000309749282553
22 0.000179024028143
23 -0.000426973140485
24 0.000678190191319
25 0.000049002381218
26 -0.000020702053557
27 -0.000028300327662
28 -0.000011656900500
29 -0.000029942116444
30 0.000043810158967
31 0.002667644768756
32 0.000029160138576
33 0.001774825584527
34 0.000149611642843
35 0.000026427984361
36 0.000013416372498
37 0.000553014811589
38 0.000568193387148
39 -0.000351229434868
40 -0.000055381481782
41 -0.000047145325888
42 0.000102526807670
43 -0.000015128795223
44 0.000067093359906
45 0.000013588934690
46 -0.002667644768756
47 -0.000029160138576
48 -0.001774825584527
49 0.000149611642843
50 0.000026427984361
51 0.000013416372498
52 0.000553014811589
53 0.000568193387148
54 -0.000351229434868
55 0.000055381481782
56 0.000047145325888
57 -0.000102526807670
58 0.000015128795223
59 -0.000067093359906
60 -0.000013588934690
61 0.70895090600695
62 0.003369319818736
63 -0.010775132766501
64 -0.000036427733804
65 0.000194757532568
66 -0.000202571184131
67 -0.001231647806477
68 0.001293132368599
69 0.000474027721241
70 0.000047599473500
71 0.000160821544595
72 -0.000208421018096
73 0.000020480138741
74 -0.000036057376336
75 0.000353469388079
76 -0.70895090600695
77 -0.003369319818736
78 0.010775132766501
79 -0.000036427733804
80 0.000194757532568
81 -0.000202571184131
82 -0.001231647806477
83 0.001293132368599
84 0.000474027721241
85 -0.000047599473500
86 -0.000160821544595
87 0.000208421018096
88 -0.000020480138741
89 0.000036057376336
90 -0.000353469388079
91 -0.000105298588549
92 -0.000234692362461
93 0.000016958838570
94 0.000005812737209
95 0.000020353025544
96 0.000105298588549
97 0.000234692362461
98 0.000016958838570
99 0.000005812737209
100 0.000020353025544
101 -0.000076668026692
102 0.000197256679881
103 0.000121971136974
104 0.000037864717767
105 -0.000007670767184
106 0.000076668026692
107 -0.000197256679881
108 0.000121971136974
109 0.000037864717767
110 -0.000007670767184
111 -0.000030738307107
112 0.000192919588371
113 0.000053551372077
114 0.000004361617097
115 -0.000010631519823
116 0.000030738307107
117 -0.000192919588371
118 0.000053551372077
119 0.000004361617097
120 -0.000010631519823
121 0.000153512828452
122 0.000741263379386
123 -0.000019995226761
124 0.000240657057662
125 0.000187232654420
126 -0.000153512828452
127 -0.000741263379386