[Molden Format]
[Atoms] (AU)
HE   1    2         0.000000000000       0.000000000000       0.000000000000
X 100 1.0 1.05 0.0 10.0
[GTO]
  1 0
 s    3  1.00
       38.3600000000         0.0238090000
        5.7700000000         0.1548910000
        1.2400000000         0.4699870000
 s    1  1.00
        0.2976000000         1.0000000000
 p    1  1.00
        1.2750000000         1.0000000000

[5D]
[9G]

[MO]
 Sym= A
 Ene= -9.14162790486410137e-01
 Spin= Alpha
 Occup=  2.00000000000000000e+00
  1  5.92640006861646751e-01
  2  5.13002245083438724e-01
  3  1.35307191331210949e-16
  4  0.00000000000000000e+00
  5  1.66060073544901385e-18
 Sym= A
 Ene=  1.39874212578434953e+00
 Spin= Alpha
 Occup=  0.00000000000000000e+00
  1  1.14956102156226292e+00
  2 -1.18724109454128879e+00
  3  1.54991583949190525e-16
  4  0.00000000000000000e+00
  5  5.51906047382970760e-18
 Sym= A
 Ene=  2.52412692032511776e+00
 Spin= Alpha
 Occup=  0.00000000000000000e+00
  1 -2.92168456752866242e-16
  2  3.79082573267788970e-16
  3  9.22722352520081612e-01
  4  0.00000000000000000e+00
  5  3.85465251559470701e-01
 Sym= A
 Ene=  2.52412692032511776e+00
 Spin= Alpha
 Occup=  0.00000000000000000e+00
  1  0.00000000000000000e+00
  2  0.00000000000000000e+00
  3  0.00000000000000000e+00
  4  1.00000000000000000e+00
  5  0.00000000000000000e+00
 Sym= A
 Ene=  2.52412692032511821e+00
 Spin= Alpha
 Occup=  0.00000000000000000e+00
  1  1.16537137859535130e-16
  2 -1.46244027242594145e-16
  3 -3.85465251559470645e-01
  4  0.00000000000000000e+00
  5  9.22722352520081612e-01
