[Molden Format]
[Molpro variables]
_NUMVAR=  804.0000000000000    
_AVOGAD= 0.6022136736000000E+24
_BOLTZ= 0.1380658000000000E-22
_CLIGHT=  29979245800.00000    
_EV2006= 0.3674930886769165E-01
_EV= 0.3674932534394180E-01
_ENULL= 0.8854187817000000E-11
_KJOULE= 0.3808798324128737E-03
_KJOULE/MOL= 0.3808798324128737E-03
_CM= 0.4556335267302901E-05
_CM-1= 0.4556335267302901E-05
_DEB2SI= 0.3335641000000000E-29
_AMU2AU=  1822.888390000000    
_KCAL= 0.1593601117815568E-02
_KCAL/MOL= 0.1593601117815568E-02
_KELVIN2006= 0.3166828861084835E-05
_KELVIN= 0.3166814820820034E-05
_JOULE= 0.4359748200000000E-17
_HERTZ2006= 0.1519829850815779E-15
_HERTZ= 0.1519829846011223E-15
_HZ2006= 0.1519829850815779E-15
_HZ= 0.1519829846011223E-15
_JPCAL=  4.184000000000000    
_PLANCK= 0.6626075540000000E-33
_TOA2006= 0.5291772490000000    
_TOA= 0.5291772090000000    
_TOANG2006= 0.5291772490000000    
_TOANG= 0.5291772090000000    
_TORAD= 0.1745329251994330E-01
_TOCM=  219474.6306700000    
_TODEBYE=  2.541580000000000    
_TOEV2006=  27.21139610000000    
_TOE= 0.4803242000000000E-09
_TOEV=  27.21138390000000    
_TOHERTZ2006=  6579683899900000.    
_TOHERTZ=  6579683920700000.    
_TOHZ2006=  6579683899900000.    
_TOHZ=  6579683920700000.    
_TOK2006=  315773.3000000000    
_TOK=  315774.7000000000    
_TOKCAL=  627.5096000000000    
_TOKELVIN2006=  315773.3000000000    
_TOKELVIN=  315774.7000000000    
_TOKJ=  2625.500000000000    
_TOKJOULE=  2625.500000000000    
_TOKG= 0.1660565586000000E-26
_ANG2006=  1.889725988578923    
_ANG=  1.889726131421507    
_ANGSTROM2006=  1.889725988578923    
_ANGSTROM=  1.889726131421507    
_RPAREF=  0.000000000000000    
_RPADISS=  0.000000000000000    
_IGNORE_UNDEF=  2.000000000000000    
_STRICTCHECK=  0.000000000000000    
_SEW_ONEEL=  0.000000000000000    
_CPPDONE=FALSE
_DKROLL_DONE=  0.000000000000000    
_FOCKDONE=TRUE
_GRADONE=FALSE
_HESSDONE=FALSE
_INTDONE=TRUE
_SCFDONE=TRUE
_MODUL_BLOCK=FALSE
_MODUL_CUDA=FALSE
_MODUL_SLATER=FALSE
_MODUL_MRCC=FALSE
_MODUL_NBO6=FALSE
_MODUL_NECI=TRUE
_MODUL_AIMS=TRUE
_MRCC_EXEC=
_FITC_AO_SAVED=FALSE
_FITC_MO_SAVED=FALSE
_SHARED_FS=TRUE
_LSTYP=SEWARD
_INTYP=INTS
_GEOMTYP=ZMAT
_GRADTYP=ALASKA
_DIRECT=FALSE
_DKHO= -1.000000000000000    
_SYNCM=  0.000000000000000    
_BASIS=USERDEF
_ZORIENT=  1.000000000000000    
_NELEC=  24.00000000000000    
!SPIN=  0.000000000000000    
_QSDSTEP=  0.000000000000000    
_QSDIRC=  0.000000000000000    
_PROGRAM=MATROP
_CPUSTEP= 0.7100000000000009    
_SYSSTEP= 0.4000000000000004E-01
_WALLSTEP= 0.1800000000000000    
!DFSCF=  0.000000000000000    
!SCSGRD=  0.000000000000000    
_BASINP=  610.0000000000000    
_CPUTOT=  56.67000000000000    
_DFTEXFAC=  1.000000000000000    
_DMX=  0.000000000000000    
_DMY=  0.000000000000000    
_DMZ=  0.000000000000000    
_DMX_SCF= 0.6154468794775039    
_DMY_SCF= 0.7585924449239556E-02
_DMZ_SCF=-0.7341826264555249    
_EHOMO=-0.4868765751535048    
_ELUMO=-0.3721539544669929E-01
_ENUC=  58.85249957685418    
_EPS1= -20.64554058150138    
_GRADEXFAC=  9999.000000000000    
_GRADMETHOD=TRUE
_NMRMETHOD=  0.000000000000000    
!GRID_FREEZE= -1.000000000000000    
_ITERATIONS=  0.000000000000000    
_LASTNELEC=  4.000000000000000    
_LASTSPIN=  2.000000000000000    
_LASTSYM=  1.000000000000000    
_MPP_PROG=  0.000000000000000    
_NPROC_MPP=  1.000000000000000    
_NPROC_MPPX=  1.000000000000000    
_NPROC_SMP=  16.00000000000000    
_NUMSTEP=  0.000000000000000    
_ORBITAL=  2141.200000000000    
_PI=  3.141592653589793    
_SEIG_MIN= 0.2424771728836001E-01
_SEWPROP=TRUE
_STATUS=  0.000000000000000    
_SYSTOT=  1.440000000000000    
_VERSION=  2012001.000000000    
_WALLTOT=  15.91000000000000    
_DATE=24-Jan-19
_LASTORB=MCSCF
_MACHINE=Linux-4.9.0-8-amd64/nympha18.meta.zcu.cz(x86_64) (16 PROC) 64 bit serial version
_OUTPUT=/auto/brno2/home/masiz4am/git/UKRmol-in/tests/suite/C1_target_CAS3/molpro.xml
_PGROUP=C1
_TIME=16:18:41
_LIBMOL=/afs/ics.muni.cz/software/molpro-2012.1/molprop_2012_1_Linux_x86_64_i8/lib/
!VIBCNT=  0.000000000000000    
!RGHFCNT=  0.000000000000000    
!SURFREC=  0.000000000000000    
!POLYREC=  0.000000000000000    
!DIPREC=  0.000000000000000    
!VSCFREC=  0.000000000000000    
!VCIREC=  0.000000000000000    
!PVCIREC=  0.000000000000000    
!VMP2REC=  0.000000000000000    
!VMCSCFREC=  0.000000000000000    
!VMRCIREC=  0.000000000000000    
!VIBINFO=  0.000000000000000    
!GAREC=  0.000000000000000    
!SCFORB=  21002.00000000000    
!MCORB=  21412.00000000000    
!NEWMOL= -1.000000000000000    
!NEWSYM= -1.000000000000000    
_SLFILES=slscratch
_NGSSTO=  9.000000000000000    
_SIN=SIN
_COS=COS
_TAN=TAN
_ACOS=ACOS
_ASIN=ASIN
_ATAN=ATAN
_COSH=COSH
_SINH=SINH
_TANH=TANH
_ABS=ABS
_MOD=MOD
_ERF=ERF
_REFC=REFC
_ERFC=ERFC
_HYPOT=HYPOT
_J0=J0
_J1=J1
_JN=JN
_GAMMA=GAMMA
_LGAMMA=LGAMMA
_Y0=Y0
_Y1=Y1
_YN=YN
_EXP=EXP
_LOG=LOG
_LOG10=LOG10
_SQRT=SQRT
_INT=INT
_NINT=NINT
_MAX=MAX
_MIN=MIN
_COSMO=  0.000000000000000    
_COSMOIT=  0.000000000000000    
_COSMOES=  0.000000000000000    
_COSMOEDS=  0.000000000000000    
_COSMOEC=  0.000000000000000    
_COSMOEDCORR=  0.000000000000000    
_FEPSI=  1.000000000000000    
_SL_IsMM=  0.000000000000000    
_SL_NSYM=  1.000000000000000    
_SL_System_BitSw=  0.000000000000000    
_SL_Unique_atoms=  0.000000000000000    
_SL_GRAD=  0.000000000000000    
_SL_MAXUPD_Hess=  5.000000000000000    
_SL_N_PRINT_COD=  5.000000000000000    
_SL_PRINT_CODES=  0.000000000000000    
_SL_BasType=  0.000000000000000    
_SL_Energy_Pred=  0.000000000000000    
_SL_New_Coords=  0.000000000000000    
_SL_Total_Nuclea=  0.000000000000000    
_SL_Highest_Mltp=  0.000000000000000    
_SL_Ref_Geom=  0.000000000000000    
_SL_Symmetry_ope=  1.000000000000000    
_SL_agrad=  0.000000000000000    
_SL_GrdMax=  0.000000000000000    
_SL_GrdNorm=  0.000000000000000    
_SL_GrdRMS=  0.000000000000000    
!LATTICE= -1.000000000000000    
!NEWLATTICE=  0.000000000000000    
!LATGRAD_VAR=FALSE
!SEW_LATTICE=  1.000000000000000    
!LOCAL=  0.000000000000000    
!SAVEDOM= -1.000000000000000    
!RESTDOM= -1.000000000000000    
!SAVEDOM_HF= -1.000000000000000    
!RESTDOM_HF= -1.000000000000000    
!HESSREC=  0.000000000000000    
!FREQREC=  0.000000000000000    
!NMODREC=  0.000000000000000    
!GTASKS=  0.000000000000000    
!HTASKS=  0.000000000000000    
!THRCHG= 0.1000000000000000    
!DEBUG= -1.000000000000000    
!CFIT_CPHF=  0.000000000000000    
!RDOMAUX_CPHF=  3.000000000000000    
!THRAO_CPHF= 0.1000000000000000E-09
!THRMO_CPHF= 0.1000000000000000E-08
!THROV_CPHF= 0.1000000000000000E-11
!THRSW_CPHF= 0.1000000000000000E-09
!THRPROD_CPHF= 0.1000000000000000E-08
!THRAOPR_CPHF= 0.1000000000000000E-11
!CFIT_SCFGRD=  0.000000000000000    
!RDOMAUX_SCFGRD=  5.000000000000000    
!THRAO_SCFGRD= 0.1000000000000000E-09
!THRMO_SCFGRD= 0.1000000000000000E-08
!THROV_SCFGRD= 0.1000000000000000E-11
!THRSW_SCFGRD= 0.1000000000000000E-09
!THRPROD_SCFGRD= 0.1000000000000000E-08
!THRAOPR_SCFGRD= 0.1000000000000000E-11
!LOCFIT_SCF=  0.000000000000000    
!LOCFIT_MP2= -1.000000000000000    
_RIDOM=  0.000000000000000    
!CC2_METHOD=  0.000000000000000    
_BASIS2006=FALSE
_SVDDEL= -1.000000000000000    
_SVDDELA= -1.000000000000000    
_SVDDELP= -1.000000000000000    
_SVDDELF= -1.000000000000000    
_SVDDELS= -1.000000000000000    
_SVDDEL_ABS= -1.000000000000000    
_SVDDELA_ABS= -1.000000000000000    
_SVDDELP_ABS= -1.000000000000000    
_SVDDELF_ABS= -1.000000000000000    
_SVDDELS_ABS= -1.000000000000000    
_MAXBASIS=  0.000000000000000    
!OPT_CONICAL=  0.000000000000000    
!CLEARSP_JGRID=  0.000000000000000    
_4EXT_NDISKS=  1.000000000000000    
!ZMP=  0.000000000000000    
_MAXIT_ZMP=  500.0000000000000    
_MAXDIS_ZMP=  100.0000000000000    
_ACCU_ZMP=  14.00000000000000    
_SHIFTA_ZMP= -100.0000000000000    
!EMBEDFLAG=  1.000000000000000    
!EMBED=FALSE
!EMBED_F12=FALSE
!EMBEDNUC=  0.000000000000000    
_EMBEDENERGY=  0.000000000000000    
_KSPACETIME=  0.000000000000000    
_RSPACETIME=  0.000000000000000    
!EMBED_DFC=FALSE
!NUM_VOIDS=  0.000000000000000    
_IBODY=  0.000000000000000    
_EMBE_TOTAL=  0.000000000000000    
_EMBE_HF=  0.000000000000000    
_EMBE_CORR=  0.000000000000000    
!EDFT=  0.000000000000000    
_IFASTLATGRAD=  0.000000000000000    
_SINDEX=  0.000000000000000    
M_NAME=CASSCF(4,6)
M_CLOSED=  10.00000000000000    
M_OCC=  16.00000000000000    
GX1= 0.4610931400000000E-01
GY1=-0.8885491599999999    
GZ1=-0.2073029410000000    
GX2=-0.1965315030000000    
GY2= 0.6211529320000000    
GZ2=  2.519949606000000    
GX3=-0.5291232800000000E-01
GY3=  1.048797924000000    
GZ3= -2.400518923000000    
GX4=  1.211503331000000    
GY4=  1.747051676000000    
GZ4= -2.567003783000000    
_TRDMX= 0.1077361414506861E-01
_TRDMY= 0.4785585848517907E-02
_TRDMZ=-0.4195810248574076E-02
_QMXX=  1.933401390771863    
_TRQMXX=-0.1027112023564822E-01
_QMYY=-0.5332391509818279E-01
_TRQMYY=-0.3033111966645375E-01
_QMZZ= -1.880077475673673    
_TRQMZZ= 0.4060223990210200E-01
_QMXY=  1.738055000591654    
_TRQMXY=-0.5751725537167537    
_QMXZ= -2.092519761232673    
_TRQMXZ= 0.2304106984252784    
_QMYZ= -1.165447170041038    
_TRQMYZ=-0.4411145740988958E-01
_QMRR= -36.62664897510970    
_TRQMRR= 0.1107348345436652E-01
[Atoms] Angs
N     1    7         0.0243999981       -0.4701999645       -0.1096999917
O     2    8        -0.1039999922        0.3286999749        1.3334998993
O     3    8        -0.0279999981        0.5549999582       -1.2702999038
H     4    1         0.6410999514        0.9244999299       -1.3583998974
[GTO]
  1 0
 s    8  1.00
  0.9046000000D+04  0.6996174134D-03
  0.1357000000D+04  0.5386054630D-02
  0.3093000000D+03  0.2739102119D-01
  0.8773000000D+02  0.1031505920D+00
  0.2856000000D+02  0.2785706633D+00
  0.1021000000D+02  0.4482948495D+00
  0.3838000000D+01  0.2780859284D+00
  0.7466000000D+00  0.1543156123D-01
 s    8  1.00
  0.9046000000D+04 -0.3049900960D-03
  0.1357000000D+04 -0.2408026379D-02
  0.3093000000D+03 -0.1194444873D-01
  0.8773000000D+02 -0.4892599291D-01
  0.2856000000D+02 -0.1344727247D+00
  0.1021000000D+02 -0.3151125777D+00
  0.3838000000D+01 -0.2428578325D+00
  0.7466000000D+00  0.1094382207D+01
 s    1  1.00
  0.2248000000D+00  0.1000000000D+01
 p    3  1.00
  0.1355000000D+02  0.5890567677D-01
  0.2917000000D+01  0.3204611067D+00
  0.7973000000D+00  0.7530420618D+00
 p    1  1.00
  0.2185000000D+00  0.1000000000D+01
 d    1  1.00
  0.8170000000D+00  0.1000000000D+01
  
  2 0
 s    8  1.00
  0.1172000000D+05  0.7096459465D-03
  0.1759000000D+04  0.5467272292D-02
  0.4008000000D+03  0.2782311861D-01
  0.1137000000D+03  0.1047477397D+00
  0.3703000000D+02  0.2829208464D+00
  0.1327000000D+02  0.4484952387D+00
  0.5025000000D+01  0.2708168852D+00
  0.1013000000D+01  0.1545029161D-01
 s    8  1.00
  0.1172000000D+05 -0.3144434117D-03
  0.1759000000D+04 -0.2482137681D-02
  0.4008000000D+03 -0.1231635538D-01
  0.1137000000D+03 -0.5053891734D-01
  0.3703000000D+02 -0.1393849033D+00
  0.1327000000D+02 -0.3250774948D+00
  0.5025000000D+01 -0.2298483076D+00
  0.1013000000D+01  0.1095379347D+01
 s    1  1.00
  0.3023000000D+00  0.1000000000D+01
 p    3  1.00
  0.1770000000D+02  0.6267916628D-01
  0.3854000000D+01  0.3335365659D+00
  0.1046000000D+01  0.7412396416D+00
 p    1  1.00
  0.2753000000D+00  0.1000000000D+01
 d    1  1.00
  0.1185000000D+01  0.1000000000D+01
  
  3 0
 s    8  1.00
  0.1172000000D+05  0.7096459465D-03
  0.1759000000D+04  0.5467272292D-02
  0.4008000000D+03  0.2782311861D-01
  0.1137000000D+03  0.1047477397D+00
  0.3703000000D+02  0.2829208464D+00
  0.1327000000D+02  0.4484952387D+00
  0.5025000000D+01  0.2708168852D+00
  0.1013000000D+01  0.1545029161D-01
 s    8  1.00
  0.1172000000D+05 -0.3144434117D-03
  0.1759000000D+04 -0.2482137681D-02
  0.4008000000D+03 -0.1231635538D-01
  0.1137000000D+03 -0.5053891734D-01
  0.3703000000D+02 -0.1393849033D+00
  0.1327000000D+02 -0.3250774948D+00
  0.5025000000D+01 -0.2298483076D+00
  0.1013000000D+01  0.1095379347D+01
 s    1  1.00
  0.3023000000D+00  0.1000000000D+01
 p    3  1.00
  0.1770000000D+02  0.6267916628D-01
  0.3854000000D+01  0.3335365659D+00
  0.1046000000D+01  0.7412396416D+00
 p    1  1.00
  0.2753000000D+00  0.1000000000D+01
 d    1  1.00
  0.1185000000D+01  0.1000000000D+01
  
  4 0
 s    3  1.00
  0.1301000000D+02  0.3349872639D-01
  0.1962000000D+01  0.2348008012D+00
  0.4446000000D+00  0.8136829579D+00
 s    1  1.00
  0.1220000000D+00  0.1000000000D+01
 p    1  1.00
  0.7270000000D+00  0.1000000000D+01
 
 
[MO]
 Sym=      1.1
 Ene=     -20.6455
 Spin= Alpha
 Occup=    2.000000
1 -0.000118760207639
2 -0.000218166210486
3 0.001325021722801
4 0.000001983072197
5 0.000127503227590
6 -0.000144218793084
7 -0.000016245136405
8 0.000700092594288
9 -0.000600988173236
10 -0.000087698748626
11 0.000047085087529
12 0.000040613661097
13 0.000012948023429
14 -0.000020981984433
15 -0.000095609108879
16 -0.000371920395772
17 0.000023538788070
18 -0.000133179967405
19 0.000002739000441
20 0.000013342647149
21 0.000029335704198
22 -0.000014780513329
23 -0.000030445639199
24 0.000105545147035
25 0.000008574062547
26 0.000034180904931
27 -0.000042754967478
28 -0.000002539420218
29 0.000005363296645
30 -0.000006148126163
31 1.00141314057283
32 0.002189423515900
33 -0.003333381579052
34 0.002064546858880
35 0.000356733517155
36 0.000677941843714
37 -0.000128017703651
38 0.000832814929107
39 -0.001053977703981
40 0.000498425617699
41 -0.000080365703096
42 -0.000418059914603
43 0.000422895346700
44 -0.000154934071483
45 0.000252333513769
46 -0.001680048569248
47 0.000499045283757
48 0.001338869882689
49 0.000656067686520
50 -0.000088657939153
 Sym=      2.1
 Ene=     -20.6272
 Spin= Alpha
 Occup=    2.000000
1 -0.000194754678402
2 -0.000349756889447
3 0.001401853462770
4 -0.000008610890063
5 0.000076382678530
6 0.000123738745353
7 -0.000094069944436
8 0.000599669802621
9 0.000906469683674
10 -0.000130899800604
11 -0.000010235168539
12 0.000141134969143
13 -0.000019173107675
14 -0.000025726961332
15 0.000161878188849
16 1.00072364174644
17 0.000397636441538
18 -0.003762283053006
19 0.000091951607834
20 -0.000443685715330
21 -0.000904583211086
22 -0.000106368717748
23 0.000613523371849
24 0.001174729513121
25 0.000181071467622
26 -0.000000467550927
27 -0.000180603916695
28 0.000023829388287
29 0.000033619211279
30 -0.000152675555503
31 0.000404824905265
32 0.000021902133889
33 -0.000183039017338
34 0.000007543280846
35 0.000010576796806
36 -0.000046027588499
37 -0.000013007638634
38 -0.000086264895818
39 -0.000077189506899
40 0.000013574214696
41 0.000029336782113
42 -0.000042910996810
43 -0.000008319392047
44 0.000009845280337
45 0.000022147493970
46 -0.000015825914695
47 0.000127533905014
48 -0.000031047446895
49 0.000014403330119
50 -0.000028873751845
 Sym=      3.1
 Ene=     -15.8816
 Spin= Alpha
 Occup=    2.000000
1 1.00076027711258
2 -0.000021292084994
3 -0.004687816675385
4 -0.000074694114982
5 0.001998972023218
6 0.000024654207902
7 0.000112949109205
8 -0.001831084597865
9 -0.000055408174777
10 0.000227516419449
11 0.000021637313998
12 -0.000249153733447
13 0.000040785531797
14 0.000013565869614
15 -0.000019679750210
16 -0.000176926010119
17 -0.000228096212136
18 0.001194855031103
19 0.000021284958266
20 -0.000061402256673
21 -0.000151516084131
22 0.000039668812238
23 -0.000086689379253
24 -0.000677259836352
25 -0.000000113819908
26 -0.000057924210736
27 0.000058038030644
28 0.000004430457526
29 -0.000001805525380
30 -0.000022601444406
31 -0.000109996914042
32 -0.000076865643391
33 0.000729365756628
34 -0.000016473085367
35 -0.000140691205826
36 0.000095621777181
37 -0.000209084104790
38 -0.000319625508357
39 0.000644671786107
40 0.000005076152731
41 -0.000038124623912
42 0.000033048471181
43 -0.000002133380820
44 -0.000007568593688
45 0.000091345644055
46 0.000083122483566
47 0.000608885252288
48 -0.000105450851445
49 -0.000176165198865
50 0.000072836211256
 Sym=      4.1
 Ene=      -1.4838
 Spin= Alpha
 Occup=    2.000000
1 -0.001949674276118
2 0.14671513286704
3 0.12440850741638
4 0.002057824010331
5 0.056128473686911
6 -0.046751577494014
7 0.009827681573828
8 0.025539393755069
9 -0.013634608992158
10 -0.011348760201347
11 0.006029766613087
12 0.005318993588260
13 0.002236234955840
14 -0.002902133993119
15 -0.014318660959655
16 -0.000694679821024
17 0.050413443869741
18 0.047446949049194
19 0.001852977506400
20 -0.006246222069996
21 -0.018158883533624
22 -0.000379341247830
23 -0.002428353596259
24 -0.007068664759216
25 -0.001697798711166
26 -0.000883637794095
27 0.002581436505261
28 -0.000074383593716
29 -0.000298382103285
30 0.002028578455979
31 -0.013220331889459
32 0.41192658389806
33 0.32996158817435
34 0.10108045039454
35 0.017989864905887
36 0.027802274534768
37 -0.017370574421154
38 -0.027861223935731
39 0.021368617445414
40 0.004727718471367
41 -0.001903159920240
42 -0.002824558551126
43 0.007560146506657
44 0.000126229749044
45 -0.007684149318363
46 0.26900438560061
47 -0.003329749872462
48 -0.040057102121512
49 -0.023812037331688
50 0.007158679625616
 Sym=      5.1
 Ene=      -1.2867
 Spin= Alpha
 Occup=    2.000000
1 0.000590130169296
2 0.19495674439719
3 0.18453600281901
4 -0.005753115590291
5 0.028476108810070
6 0.073897827065073
7 -0.003729151833075
8 0.015340193547823
9 0.028944775002501
10 -0.007714715302816
11 -0.000925939945876
12 0.008640655248692
13 -0.001839211269513
14 -0.000824301452573
15 0.013716382717441
16 -0.002316185733776
17 0.42195914044929
18 0.45750212667988
19 0.005830763099731
20 -0.027300076551118
21 -0.054112008994231
22 0.004637657973849
23 -0.015521078118477
24 -0.031979637751427
25 -0.005312319156714
26 -0.001991064518965
27 0.007303383675678
28 -0.000683764307136
29 -0.001491590333204
30 0.007840688780314
31 0.002543166388728
32 -0.10868899234433
33 -0.088440294469586
34 -0.044612730907244
35 -0.039263024224540
36 0.035479899653772
37 0.005270539875911
38 -0.001890823638486
39 0.009595346603540
40 -0.005373187139538
41 0.000443013130454
42 0.004930174009084
43 -0.003838081901039
44 0.001322813436791
45 -0.002721567501630
46 -0.10440059939135
47 -0.004870066978590
48 0.014246837195747
49 0.008021283219371
50 -0.000851022180173
 Sym=      6.1
 Ene=      -1.0594
 Spin= Alpha
 Occup=    2.000000
1 -0.009275415974259
2 -0.40813206839569
3 -0.42028443721307
4 -0.002826374913413
5 0.015520922223173
6 0.063920806052416
7 -0.001413817183031
8 0.008049091165045
9 0.027909766562349
10 0.004887876041454
11 -0.001456973372090
12 -0.003430902669364
13 0.001506371907545
14 -0.001998495702003
15 0.011142426575043
16 0.000753270685960
17 0.24762612111860
18 0.30898207843358
19 -0.005846822937639
20 0.032714773673826
21 0.067868458641203
22 -0.002572035918760
23 0.014373661475520
24 0.026736756821373
25 0.002815682366257
26 0.001235292657825
27 -0.004050975024082
28 0.000452026590525
29 0.000735384671798
30 -0.004594712546779
31 -0.001023092971647
32 0.085966085239950
33 0.038556825593346
34 0.10428167152220
35 0.15665042964815
36 -0.11283450187338
37 0.003317545902619
38 0.051303704753567
39 -0.049484013369681
40 0.012868669925339
41 -0.003192604700185
42 -0.009676065225154
43 0.009091659169384
44 -0.003867770887438
45 0.011670582014366
46 0.19715896021997
47 0.018628448115374
48 -0.024124741333896
49 -0.010697692137405
50 0.000651551402581
 Sym=      7.1
 Ene=      -0.7651
 Spin= Alpha
 Occup=    2.000000
1 0.005362014913710
2 0.14880014477215
3 0.19659501538541
4 0.037154656579578
5 -0.13090291449749
6 0.15411236452681
7 0.026337087524712
8 -0.070384884356455
9 0.080805204614616
10 0.007197295350758
11 -0.004270407801187
12 -0.002926887549571
13 0.008802572138156
14 -0.009203253020513
15 0.020831434135000
16 -0.001053774202379
17 -0.067684127105371
18 -0.10146000353396
19 0.003428686417376
20 -0.057715479828370
21 -0.090488151899170
22 -0.000970265082421
23 -0.031723827179565
24 -0.054966541139561
25 -0.003396418119330
26 -0.000014816067167
27 0.003411234186498
28 -0.000556403179773
29 -0.001198768390154
30 0.006721845616699
31 0.000618025711577
32 -0.14321138719407
33 -0.35123242701283
34 0.42737799258546
35 0.23140856581450
36 -0.041572004123692
37 0.19483910643283
38 0.10293168755689
39 -0.017747027679796
40 0.021663271223199
41 -0.007842884877515
42 -0.013820386345685
43 0.012778353323338
44 0.002635956478855
45 0.006939469216784
46 0.34557075200025
47 0.024301082508908
48 -0.024108620743800
49 -0.016301475259186
50 0.007654465133544
 Sym=      8.1
 Ene=      -0.6292
 Spin= Alpha
 Occup=    2.000000
1 0.005473681669397
2 0.043980391873601
3 0.051409417203491
4 0.043291329099122
5 -0.18848008236345
6 -0.17179305559404
7 0.029587912863899
8 -0.13501642360439
9 -0.10687957487794
10 0.009556385653131
11 -0.015423517127707
12 0.005867131474576
13 0.006017580740675
14 -0.002893821678707
15 -0.014489369589569
16 0.002531888990531
17 0.071939586706262
18 0.11314209641770
19 -0.018557710856026
20 0.085556719995654
21 0.21335288916254
22 -0.014213126933489
23 0.052590117079895
24 0.14571735055690
25 0.006550972524284
26 0.003997867190669
27 -0.010548839714953
28 0.000667861003104
29 0.001419841080291
30 -0.007365840004527
31 -0.000361981383888
32 -0.020920139058403
33 -0.041752001205483
34 0.21253994955811
35 -0.36251551231190
36 -0.28263135097925
37 0.14512380510059
38 -0.26159867090352
39 -0.19747053400320
40 0.008997090830322
41 0.002438348214156
42 -0.011435439044478
43 -0.009652840115331
44 -0.004145998605416
45 -0.006129516903569
46 0.026299512106526
47 0.006659263198413
48 0.008337750904343
49 -0.023383697301600
50 -0.016692073758793
 Sym=      9.1
 Ene=      -0.6162
 Spin= Alpha
 Occup=    2.000000
1 -0.005527192897899
2 -0.080656509915712
3 -0.13143863166554
4 0.039379315777427
5 0.28556108219298
6 -0.20862839547723
7 0.031811152192470
8 0.18823738685953
9 -0.10601132072918
10 -0.014367752123363
11 0.018095722830697
12 -0.003727970707334
13 0.006702598463418
14 -0.005215173896255
15 -0.029343846882804
16 0.002060500174457
17 0.031006453705029
18 0.038228229180977
19 -0.010543368515805
20 0.066145454608335
21 0.062679852655107
22 -0.009668558360868
23 0.041267811875498
24 0.049878910996625
25 0.002451873524925
26 -0.002207031618493
27 -0.000244841906432
28 0.000737610278121
29 0.000148537945484
30 -0.006906161426017
31 -0.004434960789926
32 -0.10060539309095
33 -0.15746683842518
34 0.27596247808704
35 -0.13123684647384
36 0.37768561656930
37 0.20367332390509
38 -0.092076291781989
39 0.27345785668121
40 0.001205388276142
41 -0.007832921991003
42 0.006627533714861
43 -0.002928465092567
44 0.015404550367386
45 -0.012361207649234
46 0.039082320552554
47 -0.029739548428396
48 0.009051508503184
49 -0.009640627224485
50 0.020079555829602
 Sym=     10.1
 Ene=      -0.5066
 Spin= Alpha
 Occup=    2.000000
1 -0.008706179986150
2 -0.10732627180676
3 -0.16984303814813
4 -0.009619284347630
5 0.27515492996576
6 0.16954798554782
7 -0.005052224437628
8 0.19534348487670
9 0.091533772353974
10 -0.017972321072128
11 -0.002084452825768
12 0.020056773897897
13 0.000078495881548
14 -0.004663157582173
15 0.019699542270162
16 -0.003144285960500
17 -0.047979629362264
18 -0.073956380265062
19 0.026662249276157
20 -0.15680588063054
21 -0.35953499069309
22 0.020210791854967
23 -0.12370315955231
24 -0.26767207488298
25 -0.008700063473850
26 -0.005195396626931
27 0.013895460100781
28 -0.001069209623330
29 -0.002692865531854
30 0.012394484657715
31 0.000361901795110
32 0.016323779763010
33 0.037981039009105
34 0.10099040846875
35 -0.31678211870129
36 -0.22285543336697
37 0.088282408865827
38 -0.23572992546156
39 -0.18010369361566
40 0.004342780909338
41 -0.004329142497776
42 -0.000013638411562
43 -0.008651020720437
44 -0.004635215958203
45 -0.002969448304213
46 -0.030146436261827
47 -0.015523488023966
48 0.010626774325883
49 -0.017629798642182
50 -0.013035940298219
 Sym=     11.1
 Ene=      -0.4113
 Spin= Alpha
 Occup=    1.571424
1 -0.000460167281102
2 -0.003105044441536
3 -0.002690735035068
4 0.093180333541933
5 0.005012107064407
6 0.007756065060436
7 0.075084004840836
8 0.004272207341095
9 0.008037378997486
10 -0.001819140488587
11 0.000490408948632
12 0.001328731539955
13 0.009280074022011
14 0.012254512159756
15 0.001048431763138
16 -0.000487582942380
17 -0.002919962844016
18 -0.001599201071747
19 0.63599576363586
20 0.010101573885309
21 0.049215704617197
22 0.47543298287414
23 0.008065543649305
24 0.036517613090026
25 0.001977252251401
26 -0.000369170685667
27 -0.001608081565734
28 -0.005529245361319
29 -0.010967956674853
30 -0.000730737458276
31 0.000224096419305
32 0.004413152079868
33 0.007791953552653
34 -0.019846030803712
35 0.003136222792045
36 -0.000744568720238
37 -0.017842420424571
38 0.000883554251327
39 -0.000032834604376
40 -0.000960953623133
41 0.000309872107188
42 0.000651081515946
43 -0.001160521749587
44 0.001260852020231
45 0.000219724557900
46 -0.010731050931637
47 0.007370771530925
48 -0.001053072867843
49 0.000767560194982
50 0.001113639216144
 Sym=     12.1
 Ene=      -0.3883
 Spin= Alpha
 Occup=    1.570384
1 0.000908142740596
2 0.027445988689487
3 0.060883932685434
4 0.004537738958916
5 -0.040775956418436
6 -0.007871932729227
7 0.001677842816274
8 -0.020342477820125
9 -0.019498560927562
10 0.003502108677255
11 0.007582444955826
12 -0.011084553633081
13 -0.000520766535195
14 0.001029931771991
15 0.009481894369833
16 -0.000510763717253
17 -0.000748847779345
18 0.003826399066244
19 0.009911166461435
20 0.59151593280004
21 -0.27494055546731
22 0.008325782949501
23 0.44389529835220
24 -0.20876776196601
25 0.000885793749613
26 -0.007297843677991
27 0.006412049928379
28 0.001078944514568
29 -0.000694601870287
30 -0.006340764888902
31 0.001351391082146
32 -0.014928312377443
33 -0.050159367321056
34 -0.006434796037652
35 0.026131280119568
36 -0.074647297945831
37 -0.013827316602099
38 0.028078804696329
39 -0.058637518808022
40 0.000133429035264
41 0.000510556875212
42 -0.000643985910476
43 0.000617413863406
44 -0.002241897549716
45 0.002261197678863
46 0.010016222777460
47 0.024905374796509
48 -0.002861362236266
49 -0.000865027219369
50 -0.003474961469685
 Sym=     13.1
 Ene=      -0.2279
 Spin= Alpha
 Occup=    0.833249
1 -0.003148814358561
2 -0.010784722481828
3 0.008809447812977
4 0.70428874460270
5 0.024781828369609
6 0.052219782618763
7 0.42819380573547
8 0.018848011276999
9 0.027830411750058
10 0.000454963994631
11 0.000854950086258
12 -0.001309914080889
13 0.013355560390090
14 -0.000921504876090
15 0.001302249754887
16 0.000125658117324
17 -0.000082872755550
18 -0.001528361939308
19 -0.16083153589336
20 -0.007274707699357
21 -0.006259774535952
22 -0.13739802429225
23 -0.005209930293024
24 -0.005235412960728
25 0.000702370834416
26 0.000014314975605
27 -0.000716685810021
28 -0.002506343621629
29 -0.004272325927770
30 -0.000572062305002
31 -0.001176394136442
32 0.020287813687038
33 0.071929967651023
34 -0.10393390944782
35 0.020576101365317
36 -0.014744347592463
37 -0.080475261846567
38 0.025244660578856
39 -0.013095229560560
40 -0.003255783492254
41 0.000846140442884
42 0.002409643049371
43 -0.008267902945644
44 0.006565077062491
45 0.002330984860781
46 -0.070647776374153
47 -0.002459505473830
48 -0.000668566287736
49 0.002994399147288
50 0.000055141345046
 Sym=     14.1
 Ene=       1.1227
 Spin= Alpha
 Occup=    0.012929
1 -0.002539509267442
2 -0.032792710825370
3 -0.079177957767927
4 0.001320132250728
5 0.009844988912111
6 0.057468917116776
7 0.002209663085620
8 -0.017826865965574
9 0.080268285583012
10 -0.007073370672565
11 -0.015626166432416
12 0.022699537104982
13 0.001069065710147
14 -0.001414602990222
15 -0.016091308048285
16 -0.000413241847331
17 -0.005160455174396
18 -0.013451638071216
19 -0.001474031834983
20 0.85822664188844
21 -0.38375058041645
22 -0.000900097752198
23 -0.89833573910492
24 0.43860986676543
25 -0.007416664492719
26 0.012837244439334
27 -0.005420579946615
28 -0.003218837649093
29 0.000412077795966
30 0.009493643457754
31 -0.001090827959296
32 0.036223954336935
33 0.11878706045211
34 0.007150956828442
35 -0.038600697616982
36 0.10376904722194
37 0.019879776207269
38 -0.059944706702634
39 0.080478006237469
40 0.001882789459470
41 0.000830184812979
42 -0.002712974272449
43 -0.001096401702022
44 0.002818483575760
45 -0.003790860167936
46 -0.006863260508952
47 -0.061852039706474
48 0.005240062276392
49 0.003673013736813
50 0.005622834751135
 Sym=     15.1
 Ene=       1.1913
 Spin= Alpha
 Occup=    0.011007
1 0.000584227110495
2 0.000766019655982
3 -0.005835767272453
4 -0.13615548531340
5 -0.005278134094839
6 -0.008632831137550
7 -0.034243396628207
8 -0.002338086376076
9 0.005739457808258
10 -0.002469435683495
11 0.000409058163025
12 0.002060377520471
13 0.007872265583611
14 0.017270091216895
15 0.001114120190769
16 0.001279831385066
17 0.002294817972446
18 -0.005734898438671
19 -0.94800774410261
20 -0.029723809033850
21 -0.062815766266296
22 1.04859197804834
23 0.034539306660624
24 0.074005318421055
25 0.001236486068337
26 0.000041076631765
27 -0.001277562700101
28 -0.001741698707296
29 -0.008174995711151
30 -0.000519517011172
31 0.001351802487800
32 0.002207535452182
33 -0.016324262065204
34 -0.004383821371425
35 -0.000575619634665
36 0.001860410745722
37 -0.005609832520655
38 -0.008487585107854
39 0.003272698797778
40 -0.000917851764040
41 0.000543187436095
42 0.000374664327945
43 0.001325005302593
44 -0.000192626313256
45 -0.000647123930625
46 0.005155518245057
47 0.023220073553083
48 -0.002697446594456
49 0.000619004797536
50 0.003252590540645
 Sym=     16.1
 Ene=       2.5230
 Spin= Alpha
 Occup=    0.001007
1 -0.018152465177725
2 -0.024274998839955
3 0.10093589488991
4 -0.012362518921706
5 0.080144363991746
6 0.10635689472724
7 -0.014022523853606
8 0.084475848732724
9 0.14641784785226
10 -0.037255469213904
11 -0.000296648270485
12 0.037552117484389
13 -0.004895950233510
14 -0.006682275720363
15 0.041008595407979
16 -0.10632589816900
17 -0.30172912957741
18 0.15428883641246
19 -0.009882746360368
20 0.042067096353036
21 0.13531364724303
22 -0.016545404702528
23 0.11302621566091
24 0.16055261573748