[Molden Format]
[Molpro variables]
_NUMVAR=  805.0000000000000    
_AVOGAD= 0.6022136736000000E+24
_BOLTZ= 0.1380658000000000E-22
_CLIGHT=  29979245800.00000    
_EV2006= 0.3674930886769165E-01
_EV= 0.3674932534394180E-01
_ENULL= 0.8854187817000000E-11
_KJOULE= 0.3808798324128737E-03
_KJOULE/MOL= 0.3808798324128737E-03
_CM= 0.4556335267302901E-05
_CM-1= 0.4556335267302901E-05
_DEB2SI= 0.3335641000000000E-29
_AMU2AU=  1822.888390000000    
_KCAL= 0.1593601117815568E-02
_KCAL/MOL= 0.1593601117815568E-02
_KELVIN2006= 0.3166828861084835E-05
_KELVIN= 0.3166814820820034E-05
_JOULE= 0.4359748200000000E-17
_HERTZ2006= 0.1519829850815779E-15
_HERTZ= 0.1519829846011223E-15
_HZ2006= 0.1519829850815779E-15
_HZ= 0.1519829846011223E-15
_JPCAL=  4.184000000000000    
_PLANCK= 0.6626075540000000E-33
_TOA2006= 0.5291772490000000    
_TOA= 0.5291772090000000    
_TOANG2006= 0.5291772490000000    
_TOANG= 0.5291772090000000    
_TORAD= 0.1745329251994330E-01
_TOCM=  219474.6306700000    
_TODEBYE=  2.541580000000000    
_TOEV2006=  27.21139610000000    
_TOE= 0.4803242000000000E-09
_TOEV=  27.21138390000000    
_TOHERTZ2006=  6579683899900000.    
_TOHERTZ=  6579683920700000.    
_TOHZ2006=  6579683899900000.    
_TOHZ=  6579683920700000.    
_TOK2006=  315773.3000000000    
_TOK=  315774.7000000000    
_TOKCAL=  627.5096000000000    
_TOKELVIN2006=  315773.3000000000    
_TOKELVIN=  315774.7000000000    
_TOKJ=  2625.500000000000    
_TOKJOULE=  2625.500000000000    
_TOKG= 0.1660565586000000E-26
_ANG2006=  1.889725988578923    
_ANG=  1.889726131421507    
_ANGSTROM2006=  1.889725988578923    
_ANGSTROM=  1.889726131421507    
_RPAREF=  0.000000000000000    
_RPADISS=  0.000000000000000    
_IGNORE_UNDEF=  2.000000000000000    
_STRICTCHECK=  0.000000000000000    
_SEW_ONEEL=  0.000000000000000    
_CPPDONE=FALSE
_DKROLL_DONE=  0.000000000000000    
_FOCKDONE=TRUE
_GRADONE=FALSE
_HESSDONE=FALSE
_INTDONE=TRUE
_SCFDONE=TRUE
_MODUL_BLOCK=FALSE
_MODUL_CUDA=FALSE
_MODUL_SLATER=FALSE
_MODUL_MRCC=FALSE
_MODUL_NBO6=FALSE
_MODUL_NECI=TRUE
_MODUL_AIMS=TRUE
_MRCC_EXEC=
_FITC_AO_SAVED=FALSE
_FITC_MO_SAVED=FALSE
_SHARED_FS=TRUE
_LSTYP=SEWARD
_INTYP=INTS
_GEOMTYP=ZMAT
_GRADTYP=ALASKA
_DIRECT=FALSE
_DKHO= -1.000000000000000    
_SYNCM=  0.000000000000000    
_BASIS=USERDEF
_ZORIENT=  1.000000000000000    
_NELEC=  42.00000000000000    
!SPIN=  0.000000000000000    
_QSDSTEP=  0.000000000000000    
_QSDIRC=  0.000000000000000    
_PROGRAM=HF-SCF
_CPUSTEP=  3.300000000000000    
_SYSSTEP= 0.4000000000000004E-01
_WALLSTEP= 0.7500000000000000    
!DFSCF=  0.000000000000000    
!SCSGRD=  0.000000000000000    
_BASINP=  610.0000000000000    
_CPUTOT=  4.980000000000000    
_CPUSORT= 0.2500000000000000    
_SYSSORT= 0.9999999999999998E-01
_WALLSORT= 0.3799999989569187    
_DFTEXFAC=  1.000000000000000    
_DMX=  0.000000000000000    
_DMY=  0.000000000000000    
_DMZ=-0.8718533514593072    
_DMX_SCF=  0.000000000000000    
_DMY_SCF=  0.000000000000000    
_DMZ_SCF=-0.8718533514593072    
_EHOMO=-0.3439228265685456    
_ELUMO= 0.1154928063200286    
_ENERGY= -246.7143075579218    
_ENUC=  205.5266160318501    
_EPS1= -15.56763025065544    
_EPS2=-0.5359802397740455    
_EPS3= -11.27916186767988    
_EPS4=-0.3439228265685456    
_GRADEXFAC=  9999.000000000000    
_GRADMETHOD=  1.000000000000000    
_NMRMETHOD=  0.000000000000000    
!GRID_FREEZE= -1.000000000000000    
_ITERATIONS=  11.00000000000000    
_LASTNELEC=  42.00000000000000    
_LASTSPIN=  0.000000000000000    
_LASTSYM=  1.000000000000000    
_MPP_PROG=  0.000000000000000    
_NPROC_MPP=  1.000000000000000    
_NPROC_MPPX=  1.000000000000000    
_NPROC_SMP=  16.00000000000000    
_NUMSTEP=  0.000000000000000    
_ORBITAL=  2100.200000000000    
_PI=  3.141592653589793    
_SEIG_MIN= 0.8148194445626768E-03
_SEWPROP=TRUE
_STATUS=  1.000000000000000    
_SYSTOT= 0.2300000000000000    
_VERSION=  2012001.000000000    
_WALLTOT=  4.020000000000000    
_DATE=24-Jan-19
_LASTORB=RHF
_MACHINE=Linux-4.9.0-8-amd64/nympha18.meta.zcu.cz(x86_64) (16 PROC) 64 bit serial version
_OUTPUT=/auto/brno2/home/masiz4am/git/UKRmol-in/tests/suite/C2v_scattering_SEP/molpro.xml
_PGROUP=C2v
_TIME=16:41:00
_LIBMOL=/afs/ics.muni.cz/software/molpro-2012.1/molprop_2012_1_Linux_x86_64_i8/lib/
!VIBCNT=  0.000000000000000    
!RGHFCNT=  0.000000000000000    
!SURFREC=  0.000000000000000    
!POLYREC=  0.000000000000000    
!DIPREC=  0.000000000000000    
!VSCFREC=  0.000000000000000    
!VCIREC=  0.000000000000000    
!PVCIREC=  0.000000000000000    
!VMP2REC=  0.000000000000000    
!VMCSCFREC=  0.000000000000000    
!VMRCIREC=  0.000000000000000    
!VIBINFO=  0.000000000000000    
!GAREC=  0.000000000000000    
!SCFORB=  21002.00000000000    
!NEWMOL= -1.000000000000000    
!NEWSYM= -1.000000000000000    
_SLFILES=slscratch
_NGSSTO=  9.000000000000000    
_SIN=SIN
_COS=COS
_TAN=TAN
_ACOS=ACOS
_ASIN=ASIN
_ATAN=ATAN
_COSH=COSH
_SINH=SINH
_TANH=TANH
_ABS=ABS
_MOD=MOD
_ERF=ERF
_REFC=REFC
_ERFC=ERFC
_HYPOT=HYPOT
_J0=J0
_J1=J1
_JN=JN
_GAMMA=GAMMA
_LGAMMA=LGAMMA
_Y0=Y0
_Y1=Y1
_YN=YN
_EXP=EXP
_LOG=LOG
_LOG10=LOG10
_SQRT=SQRT
_INT=INT
_NINT=NINT
_MAX=MAX
_MIN=MIN
_COSMO=  0.000000000000000    
_COSMOIT=  0.000000000000000    
_COSMOES=  0.000000000000000    
_COSMOEDS=  0.000000000000000    
_COSMOEC=  0.000000000000000    
_COSMOEDCORR=  0.000000000000000    
_FEPSI=  1.000000000000000    
_SL_IsMM=  0.000000000000000    
_SL_NSYM=  4.000000000000000    
_SL_System_BitSw=  0.000000000000000    
_SL_Unique_atoms=  0.000000000000000    
_SL_GRAD=  0.000000000000000    
_SL_MAXUPD_Hess=  5.000000000000000    
_SL_N_PRINT_COD=  5.000000000000000    
_SL_PRINT_CODES=  0.000000000000000    
_SL_BasType=  0.000000000000000    
_SL_Energy_Pred=  0.000000000000000    
_SL_New_Coords=  0.000000000000000    
_SL_Total_Nuclea=  0.000000000000000    
_SL_Highest_Mltp=  0.000000000000000    
_SL_Ref_Geom=  0.000000000000000    
_SL_Symmetry_ope=  1.000000000000000    
_SL_agrad=  0.000000000000000    
_SL_GrdMax=  0.000000000000000    
_SL_GrdNorm=  0.000000000000000    
_SL_GrdRMS=  0.000000000000000    
!LATTICE= -1.000000000000000    
!NEWLATTICE=  0.000000000000000    
!LATGRAD_VAR=FALSE
!SEW_LATTICE=  1.000000000000000    
!LOCAL=  0.000000000000000    
!SAVEDOM= -1.000000000000000    
!RESTDOM= -1.000000000000000    
!SAVEDOM_HF= -1.000000000000000    
!RESTDOM_HF= -1.000000000000000    
!HESSREC=  0.000000000000000    
!FREQREC=  0.000000000000000    
!NMODREC=  0.000000000000000    
!GTASKS=  0.000000000000000    
!HTASKS=  0.000000000000000    
!THRCHG= 0.1000000000000000    
!DEBUG= -1.000000000000000    
!CFIT_CPHF=  0.000000000000000    
!RDOMAUX_CPHF=  3.000000000000000    
!THRAO_CPHF= 0.1000000000000000E-09
!THRMO_CPHF= 0.1000000000000000E-08
!THROV_CPHF= 0.1000000000000000E-11
!THRSW_CPHF= 0.1000000000000000E-09
!THRPROD_CPHF= 0.1000000000000000E-08
!THRAOPR_CPHF= 0.1000000000000000E-11
!CFIT_SCFGRD=  0.000000000000000    
!RDOMAUX_SCFGRD=  5.000000000000000    
!THRAO_SCFGRD= 0.1000000000000000E-09
!THRMO_SCFGRD= 0.1000000000000000E-08
!THROV_SCFGRD= 0.1000000000000000E-11
!THRSW_SCFGRD= 0.1000000000000000E-09
!THRPROD_SCFGRD= 0.1000000000000000E-08
!THRAOPR_SCFGRD= 0.1000000000000000E-11
!LOCFIT_SCF=  0.000000000000000    
!LOCFIT_MP2= -1.000000000000000    
_RIDOM=  0.000000000000000    
!CC2_METHOD=  0.000000000000000    
_BASIS2006=FALSE
_SVDDEL= -1.000000000000000    
_SVDDELA= -1.000000000000000    
_SVDDELP= -1.000000000000000    
_SVDDELF= -1.000000000000000    
_SVDDELS= -1.000000000000000    
_SVDDEL_ABS= -1.000000000000000    
_SVDDELA_ABS= -1.000000000000000    
_SVDDELP_ABS= -1.000000000000000    
_SVDDELF_ABS= -1.000000000000000    
_SVDDELS_ABS= -1.000000000000000    
_MAXBASIS=  0.000000000000000    
!OPT_CONICAL=  0.000000000000000    
!CLEARSP_JGRID=  0.000000000000000    
_4EXT_NDISKS=  1.000000000000000    
!ZMP=  0.000000000000000    
_MAXIT_ZMP=  500.0000000000000    
_MAXDIS_ZMP=  100.0000000000000    
_ACCU_ZMP=  14.00000000000000    
_SHIFTA_ZMP= -100.0000000000000    
!EMBEDFLAG=  1.000000000000000    
!EMBED=FALSE
!EMBED_F12=FALSE
!EMBEDNUC=  0.000000000000000    
_EMBEDENERGY=  0.000000000000000    
_KSPACETIME=  0.000000000000000    
_RSPACETIME=  0.000000000000000    
!EMBED_DFC=FALSE
!NUM_VOIDS=  0.000000000000000    
_IBODY=  0.000000000000000    
_EMBE_TOTAL=  0.000000000000000    
_EMBE_HF=  0.000000000000000    
_EMBE_CORR=  0.000000000000000    
!EDFT=  0.000000000000000    
_IFASTLATGRAD=  0.000000000000000    
_SINDEX=  0.000000000000000    
GX1=  0.000000000000000    
GY1=  0.000000000000000    
GZ1=  2.696450217000000    
GX2=  0.000000000000000    
GY2= -2.157500324000000    
GZ2=  1.366649938000000    
GX3=  0.000000000000000    
GY3= -2.266726495000000    
GZ3= -1.275187193000000    
GX4=  0.000000000000000    
GY4=  0.000000000000000    
GZ4= -2.628609049000000    
GX5=  0.000000000000000    
GY5= -3.891324050000000    
GZ5=  2.474029451000000    
GX6=  0.000000000000000    
GY6= -4.081997416000000    
GZ6= -2.232900397000000    
GX7=  0.000000000000000    
GY7=  0.000000000000000    
GZ7= -4.682552381000000    
GX8=  0.000000000000000    
GY8=  2.266726495000000    
GZ8= -1.275187193000000    
GX9=  0.000000000000000    
GY9=  2.157500324000000    
GZ9=  1.366649938000000    
GX10=  0.000000000000000    
GY10=  4.081997416000000    
GZ10= -2.232900397000000    
GX11=  0.000000000000000    
GY11=  3.891324050000000    
GZ11=  2.474029451000000    
[Atoms] Angs
N     1    7         0.0000000000        0.0000000000        1.4269000000
C     2    6         0.0000000000       -1.1416999999        0.7231999999
C     3    6         0.0000000000       -1.1995000002       -0.6747999997
C     4    6         0.0000000000        0.0000000000       -1.3910000001
H     5    1         0.0000000000       -2.0592000001        1.3091999999
H     6    1         0.0000000000       -2.1600999997       -1.1816000001
H     7    1         0.0000000000        0.0000000000       -2.4779000000
C     8    6         0.0000000000        1.1995000002       -0.6747999997
C     9    6         0.0000000000        1.1416999999        0.7231999999
H    10    1         0.0000000000        2.1600999997       -1.1816000001
H    11    1         0.0000000000        2.0592000001        1.3091999999
[GTO]
  1 0
 s    8  1.00
  0.9046000000D+04  0.6996174134D-03
  0.1357000000D+04  0.5386054630D-02
  0.3093000000D+03  0.2739102119D-01
  0.8773000000D+02  0.1031505920D+00
  0.2856000000D+02  0.2785706633D+00
  0.1021000000D+02  0.4482948495D+00
  0.3838000000D+01  0.2780859284D+00
  0.7466000000D+00  0.1543156123D-01
 s    8  1.00
  0.9046000000D+04 -0.3049900960D-03
  0.1357000000D+04 -0.2408026379D-02
  0.3093000000D+03 -0.1194444873D-01
  0.8773000000D+02 -0.4892599291D-01
  0.2856000000D+02 -0.1344727247D+00
  0.1021000000D+02 -0.3151125777D+00
  0.3838000000D+01 -0.2428578325D+00
  0.7466000000D+00  0.1094382207D+01
 s    1  1.00
  0.2248000000D+00  0.1000000000D+01
 p    3  1.00
  0.1355000000D+02  0.5890567677D-01
  0.2917000000D+01  0.3204611067D+00
  0.7973000000D+00  0.7530420618D+00
 p    1  1.00
  0.2185000000D+00  0.1000000000D+01
 d    1  1.00
  0.8170000000D+00  0.1000000000D+01
  
  2 0
 s    8  1.00
  0.6665000000D+04  0.6915839628D-03
  0.1000000000D+04  0.5325796153D-02
  0.2280000000D+03  0.2706072104D-01
  0.6471000000D+02  0.1016568461D+00
  0.2106000000D+02  0.2745748236D+00
  0.7495000000D+01  0.4482943189D+00
  0.2797000000D+01  0.2849026107D+00
  0.5215000000D+00  0.1519485921D-01
 s    8  1.00
  0.6665000000D+04 -0.2932696527D-03
  0.1000000000D+04 -0.2318035474D-02
  0.2280000000D+03 -0.1149978604D-01
  0.6471000000D+02 -0.4682672701D-01
  0.2106000000D+02 -0.1284661688D+00
  0.7495000000D+01 -0.3012662725D+00
  0.2797000000D+01 -0.2556307023D+00
  0.5215000000D+00  0.1093793361D+01
 s    1  1.00
  0.1596000000D+00  0.1000000000D+01
 p    3  1.00
  0.9439000000D+01  0.5697925159D-01
  0.2002000000D+01  0.3132072115D+00
  0.5456000000D+00  0.7603767417D+00
 p    1  1.00
  0.1517000000D+00  0.1000000000D+01
 d    1  1.00
  0.5500000000D+00  0.1000000000D+01
  
  9 0
 s    8  1.00
  0.6665000000D+04  0.6915839628D-03
  0.1000000000D+04  0.5325796153D-02
  0.2280000000D+03  0.2706072104D-01
  0.6471000000D+02  0.1016568461D+00
  0.2106000000D+02  0.2745748236D+00
  0.7495000000D+01  0.4482943189D+00
  0.2797000000D+01  0.2849026107D+00
  0.5215000000D+00  0.1519485921D-01
 s    8  1.00
  0.6665000000D+04 -0.2932696527D-03
  0.1000000000D+04 -0.2318035474D-02
  0.2280000000D+03 -0.1149978604D-01
  0.6471000000D+02 -0.4682672701D-01
  0.2106000000D+02 -0.1284661688D+00
  0.7495000000D+01 -0.3012662725D+00
  0.2797000000D+01 -0.2556307023D+00
  0.5215000000D+00  0.1093793361D+01
 s    1  1.00
  0.1596000000D+00  0.1000000000D+01
 p    3  1.00
  0.9439000000D+01  0.5697925159D-01
  0.2002000000D+01  0.3132072115D+00
  0.5456000000D+00  0.7603767417D+00
 p    1  1.00
  0.1517000000D+00  0.1000000000D+01
 d    1  1.00
  0.5500000000D+00  0.1000000000D+01
  
  3 0
 s    8  1.00
  0.6665000000D+04  0.6915839628D-03
  0.1000000000D+04  0.5325796153D-02
  0.2280000000D+03  0.2706072104D-01
  0.6471000000D+02  0.1016568461D+00
  0.2106000000D+02  0.2745748236D+00
  0.7495000000D+01  0.4482943189D+00
  0.2797000000D+01  0.2849026107D+00
  0.5215000000D+00  0.1519485921D-01
 s    8  1.00
  0.6665000000D+04 -0.2932696527D-03
  0.1000000000D+04 -0.2318035474D-02
  0.2280000000D+03 -0.1149978604D-01
  0.6471000000D+02 -0.4682672701D-01
  0.2106000000D+02 -0.1284661688D+00
  0.7495000000D+01 -0.3012662725D+00
  0.2797000000D+01 -0.2556307023D+00
  0.5215000000D+00  0.1093793361D+01
 s    1  1.00
  0.1596000000D+00  0.1000000000D+01
 p    3  1.00
  0.9439000000D+01  0.5697925159D-01
  0.2002000000D+01  0.3132072115D+00
  0.5456000000D+00  0.7603767417D+00
 p    1  1.00
  0.1517000000D+00  0.1000000000D+01
 d    1  1.00
  0.5500000000D+00  0.1000000000D+01
  
  8 0
 s    8  1.00
  0.6665000000D+04  0.6915839628D-03
  0.1000000000D+04  0.5325796153D-02
  0.2280000000D+03  0.2706072104D-01
  0.6471000000D+02  0.1016568461D+00
  0.2106000000D+02  0.2745748236D+00
  0.7495000000D+01  0.4482943189D+00
  0.2797000000D+01  0.2849026107D+00
  0.5215000000D+00  0.1519485921D-01
 s    8  1.00
  0.6665000000D+04 -0.2932696527D-03
  0.1000000000D+04 -0.2318035474D-02
  0.2280000000D+03 -0.1149978604D-01
  0.6471000000D+02 -0.4682672701D-01
  0.2106000000D+02 -0.1284661688D+00
  0.7495000000D+01 -0.3012662725D+00
  0.2797000000D+01 -0.2556307023D+00
  0.5215000000D+00  0.1093793361D+01
 s    1  1.00
  0.1596000000D+00  0.1000000000D+01
 p    3  1.00
  0.9439000000D+01  0.5697925159D-01
  0.2002000000D+01  0.3132072115D+00
  0.5456000000D+00  0.7603767417D+00
 p    1  1.00
  0.1517000000D+00  0.1000000000D+01
 d    1  1.00
  0.5500000000D+00  0.1000000000D+01
  
  4 0
 s    8  1.00
  0.6665000000D+04  0.6915839628D-03
  0.1000000000D+04  0.5325796153D-02
  0.2280000000D+03  0.2706072104D-01
  0.6471000000D+02  0.1016568461D+00
  0.2106000000D+02  0.2745748236D+00
  0.7495000000D+01  0.4482943189D+00
  0.2797000000D+01  0.2849026107D+00
  0.5215000000D+00  0.1519485921D-01
 s    8  1.00
  0.6665000000D+04 -0.2932696527D-03
  0.1000000000D+04 -0.2318035474D-02
  0.2280000000D+03 -0.1149978604D-01
  0.6471000000D+02 -0.4682672701D-01
  0.2106000000D+02 -0.1284661688D+00
  0.7495000000D+01 -0.3012662725D+00
  0.2797000000D+01 -0.2556307023D+00
  0.5215000000D+00  0.1093793361D+01
 s    1  1.00
  0.1596000000D+00  0.1000000000D+01
 p    3  1.00
  0.9439000000D+01  0.5697925159D-01
  0.2002000000D+01  0.3132072115D+00
  0.5456000000D+00  0.7603767417D+00
 p    1  1.00
  0.1517000000D+00  0.1000000000D+01
 d    1  1.00
  0.5500000000D+00  0.1000000000D+01
  
  5 0
 s    3  1.00
  0.1301000000D+02  0.3349872639D-01
  0.1962000000D+01  0.2348008012D+00
  0.4446000000D+00  0.8136829579D+00
 s    1  1.00
  0.1220000000D+00  0.1000000000D+01
 p    1  1.00
  0.7270000000D+00  0.1000000000D+01
  
 11 0
 s    3  1.00
  0.1301000000D+02  0.3349872639D-01
  0.1962000000D+01  0.2348008012D+00
  0.4446000000D+00  0.8136829579D+00
 s    1  1.00
  0.1220000000D+00  0.1000000000D+01
 p    1  1.00
  0.7270000000D+00  0.1000000000D+01
  
  6 0
 s    3  1.00
  0.1301000000D+02  0.3349872639D-01
  0.1962000000D+01  0.2348008012D+00
  0.4446000000D+00  0.8136829579D+00
 s    1  1.00
  0.1220000000D+00  0.1000000000D+01
 p    1  1.00
  0.7270000000D+00  0.1000000000D+01
  
 10 0
 s    3  1.00
  0.1301000000D+02  0.3349872639D-01
  0.1962000000D+01  0.2348008012D+00
  0.4446000000D+00  0.8136829579D+00
 s    1  1.00
  0.1220000000D+00  0.1000000000D+01
 p    1  1.00
  0.7270000000D+00  0.1000000000D+01
  
  7 0
 s    3  1.00
  0.1301000000D+02  0.3349872639D-01
  0.1962000000D+01  0.2348008012D+00
  0.4446000000D+00  0.8136829579D+00
 s    1  1.00
  0.1220000000D+00  0.1000000000D+01
 p    1  1.00
  0.7270000000D+00  0.1000000000D+01
 
 
[MO]
 Sym=      1.1
 Ene=     -15.5676
 Spin= Alpha
 Occup=    2.000000
1 1.00194802656387
2 0.003268715602648
3 -0.010348349250029
4 0.0
5 0.0
6 -0.002164732157219
7 0.0
8 0.0
9 0.003250643359384
10 -0.000293942037071
11 0.000286816335812
12 0.000007125701259
13 0.0
14 0.0
15 0.0
16 0.000137533360764
17 0.000116846144096
18 0.004486886670567
19 0.0
20 -0.000007556121309
21 -0.000011394692828
22 0.0
23 0.002821691644887
24 -0.000709396461165
25 0.000117486057660
26 -0.000216253143617
27 0.000098767085956
28 0.0
29 0.0
30 -0.000610234549032
31 0.000137533360764
32 0.000116846144096
33 0.004486886670567
34 0.0
35 0.000007556121309
36 -0.000011394692828
37 0.0
38 -0.002821691644887
39 -0.000709396461165
40 0.000117486057660
41 -0.000216253143617
42 0.000098767085956
43 0.0
44 0.0
45 0.000610234549032
46 0.000116897189216
47 0.000181165935749
48 -0.004008065534716
49 0.0
50 -0.000028466689825
51 -0.000089850561791
52 0.0
53 -0.002825016300328
54 -0.000871642441399
55 0.000025274756363
56 0.000003159122559
57 -0.000028433878922
58 0.0
59 0.0
60 -0.000231779221936
61 0.000116897189216
62 0.000181165935749
63 -0.004008065534716
64 0.0
65 0.000028466689825
66 -0.000089850561791
67 0.0
68 0.002825016300328
69 -0.000871642441399
70 0.000025274756363
71 0.000003159122559
72 -0.000028433878922
73 0.0
74 0.0
75 0.000231779221936
76 -0.000213243900711
77 -0.000374078631253
78 0.004998990819959
79 0.0
80 0.0
81 -0.000059074309286
82 0.0
83 0.0
84 0.002358673148420
85 -0.000099681234718
86 -0.000046851015342
87 0.000146532250060
88 0.0
89 0.0
90 0.0
91 -0.000127519765910
92 0.000610887108315
93 0.0
94 -0.000231246606636
95 -0.000047716476562
96 -0.000127519765910
97 0.000610887108315
98 0.0
99 0.000231246606636
100 -0.000047716476562
101 -0.000085999629070
102 -0.000771400972454
103 0.0
104 0.000118250325839
105 -0.000017746533915
106 -0.000085999629070
107 -0.000771400972454
108 0.0
109 -0.000118250325839
110 -0.000017746533915
111 -0.000074544281798
112 0.000539990006592
113 0.0
114 0.0
115 -0.000095382852129
 Sym=      1.3
 Ene=     -11.2792
 Spin= Alpha
 Occup=    2.000000
1 0.0
2 0.0
3 0.0
4 0.0
5 -0.000250036358155
6 0.0
7 0.0
8 0.002392252484775
9 0.0
10 0.0
11 0.0
12 0.0
13 0.0
14 0.0
15 -0.000165004313655
16 0.70850397408252
17 0.003067202383454
18 -0.005691016246485
19 0.0
20 0.000268512624700
21 0.000169458563407
22 0.0
23 0.000369655937616
24 0.003164436629296
25 -0.000444061253219
26 0.000156168473977
27 0.000287892779242
28 0.0
29 0.0
30 0.000071705010403
31 -0.70850397408252
32 -0.003067202383454
33 0.005691016246485
34 0.0
35 0.000268512624700
36 -0.000169458563407
37 0.0
38 0.000369655937616
39 -0.003164436629296
40 0.000444061253219
41 -0.000156168473977
42 -0.000287892779242
43 0.0
44 0.0
45 0.000071705010403
46 0.012905495681169
47 -0.000148024439557
48 0.001809820942339
49 0.0
50 0.000041681996923
51 -0.000047483618635
52 0.0
53 -0.000856141612828
54 0.002808811564641
55 0.000246251842890
56 -0.000104348276316
57 -0.000141903566574
58 0.0
59 0.0
60 0.000006107690705
61 -0.012905495681169
62 0.000148024439557
63 -0.001809820942339
64 0.0
65 0.000041681996923
66 0.000047483618635
67 0.0
68 -0.000856141612828
69 -0.002808811564641
70 -0.000246251842890
71 0.000104348276316
72 0.000141903566574
73 0.0
74 0.0
75 0.000006107690705
76 0.0
77 0.0
78 0.0
79 0.0
80 -0.000017867269030
81 0.0
82 0.0
83 -0.002294462445132
84 0.0
85 0.0
86 0.0
87 0.0
88 0.0
89 0.0
90 -0.000112408612942
91 -0.000338971477099
92 0.000262834999207
93 0.0
94 -0.000352374171193
95 0.000018107338518
96 0.000338971477099
97 -0.000262834999207
98 0.0
99 -0.000352374171193
100 -0.000018107338518
101 0.000030545554200
102 0.000205746922254
103 0.0
104 0.000115609916984
105 -0.000021810010878
106 -0.000030545554200
107 -0.000205746922254
108 0.0
109 0.000115609916984
110 0.000021810010878
111 0.0
112 0.0
113 0.0
114 0.000055371557477
115 0.0
 Sym=      2.1
 Ene=     -11.2791
 Spin= Alpha
 Occup=    2.000000
1 0.000150824792323
2 0.000997242328094
3 -0.004951060179383
4 0.0
5 0.0
6 -0.000063645358756
7 0.0
8 0.0
9 0.002136229476618
10 0.000513185814322
11 -0.000413929515072
12 -0.000099256299250
13 0.0
14 0.0
15 0.0
16 0.70828908330724
17 0.002727921993155
18 -0.000765734335279
19 0.0
20 0.000344111148704
21 0.000223670613834
22 0.0
23 0.002556672200915
24 -0.000677543534744
25 -0.000706831039114
26 0.000438912326037
27 0.000267918713077
28 0.0
29 0.0
30 0.000128037546621
31 0.70828908330724
32 0.002727921993155
33 -0.000765734335279
34 0.0
35 -0.000344111148704
36 0.000223670613834
37 0.0
38 -0.002556672200915
39 -0.000677543534744
40 -0.000706831039114
41 0.000438912326037
42 0.000267918713077
43 0.0
44 0.0
45 -0.000128037546621
46 0.012665644417502
47 0.000164117660320
48 -0.003844069372480
49 0.0
50 0.000017019665226
51 -0.000065242649780
52 0.0
53 -0.003028284398107
54 -0.000466343306346
55 0.000377232405125
56 -0.000141527088521
57 -0.000235705316604
58 0.0
59 0.0
60 0.000016019023703
61 0.012665644417502
62 0.000164117660320
63 -0.003844069372480
64 0.0
65 -0.000017019665226
66 -0.000065242649780
67 0.0
68 0.003028284398107
69 -0.000466343306346
70 0.000377232405125
71 -0.000141527088521
72 -0.000235705316604
73 0.0
74 0.0
75 -0.000016019023703
76 0.000526791704694
77 -0.000325874789145
78 0.006127149233082
79 0.0
80 0.0
81 0.000048397939933
82 0.0
83 0.0
84 0.003012219361400
85 -0.000270430323040
86 0.000114459145499
87 0.000155971177541
88 0.0
89 0.0
90 0.0
91 -0.000126607191058
92 0.001489780084376
93 0.0
94 -0.000387082130199
95 0.000171885106277
96 -0.000126607191058
97 0.001489780084376
98 0.0
99 0.000387082130199
100 0.000171885106277
101 -0.000066049438002
102 -0.000679197422411
103 0.0
104 0.000150216135971
105 0.000081127728454
106 -0.000066049438002
107 -0.000679197422411
108 0.0
109 -0.000150216135971
110 0.000081127728454
111 -0.000059716327291
112 0.000762326110397
113 0.0
114 0.0
115 -0.000111511786737
 Sym=      3.1
 Ene=     -11.2653
 Spin= Alpha
 Occup=    2.000000
1 0.000001336582474
2 -0.000011348928009
3 -0.000052092197613
4 0.0
5 0.0
6 0.000011914900852
7 0.0
8 0.0
9 0.000164274075175
10 0.000005189869075
11 0.000017619870726
12 -0.000022809739800
13 0.0
14 0.0
15 0.0
16 -0.001176657004180
17 -0.000107490952633
18 0.000465938849819
19 0.0
20 0.000001189839557
21 0.000016561944639
22 0.0
23 0.000007939389560
24 -0.000391346981959
25 -0.000104066046055
26 0.000035888180891
27 0.000068177865165
28 0.0
29 0.0
30 -0.000073656958193
31 -0.001176657004180
32 -0.000107490952633
33 0.000465938849819
34 0.0
35 -0.000001189839557
36 0.000016561944639
37 0.0
38 -0.000007939389560
39 -0.000391346981959
40 -0.000104066046055
41 0.000035888180891
42 0.000068177865165
43 0.0
44 0.0
45 0.000073656958193
46 0.032265541107960
47 -0.000157530757887
48 0.001758818418930
49 0.0
50 -0.000049919161324
51 0.000014505762179
52 0.0
53 0.001334666648959
54 -0.000516596363545
55 0.000330833211935
56 -0.000246374020074
57 -0.000084459191861
58 0.0
59 0.0
60 0.000014167350654
61 0.032265541107960
62 -0.000157530757887
63 0.001758818418930
64 0.0
65 0.000049919161324
66 0.000014505762179
67 0.0
68 -0.001334666648959
69 -0.000516596363545
70 0.000330833211935
71 -0.000246374020074
72 -0.000084459191861
73 0.0
74 0.0
75 -0.000014167350654
76 1.00102858062100
77 0.004298173717506
78 -0.009275656874908
79 0.0
80 0.0
81 -0.000090310575491
82 0.0
83 0.0
84 -0.001577264610401
85 -0.000621916730295
86 0.000126773899139
87 0.000495142831156
88 0.0
89 0.0
90 0.0
91 -0.000052103767043
92 0.000135091952453
93 0.0
94 -0.000025172980654
95 0.000007144574627
96 -0.000052103767043
97 0.000135091952453
98 0.0
99 0.000025172980654
100 0.000007144574627
101 0.000138844175600
102 0.000355094563269
103 0.0
104 0.000108866611609
105 0.000075948526639
106 0.000138844175600
107 0.000355094563269
108 0.0
109 -0.000108866611609
110 0.000075948526639
111 -0.000526766025464
112 0.000837991051154
113 0.0
114 0.0
115 -0.000574380075879
 Sym=      2.3
 Ene=     -11.2474
 Spin= Alpha
 Occup=    2.000000
1 0.0
2 0.0
3 0.0
4 0.0
5 -0.000012149339237
6 0.0
7 0.0
8 0.000079855343694
9 0.0
10 0.0
11 0.0
12 0.0
13 0.0
14 0.0
15 0.000031073590085
16 -0.013287031112817
17 -0.000201178294681
18 0.001627934040050
19 0.0
20 0.000032557108292
21 0.000021583639053
22 0.0
23 0.000535805461515
24 -0.000677224355116
25 0.000262980760229
26 -0.000077192359357
27 -0.000185788400872
28 0.0
29 0.0
30 0.000041921593387
31 0.013287031112817
32 0.000201178294681
33 -0.001627934040050
34 0.0
35 0.000032557108292
36 -0.000021583639053
37 0.0
38 0.000535805461515
39 0.000677224355116
40 -0.000262980760229
41 0.000077192359357
42 0.000185788400872
43 0.0
44 0.0
45 0.000041921593387
46 0.70855059562689
47 0.003234377207030
48 -0.006832864901868
49 0.0
50 0.000003745835932
51 -0.000033533884606
52 0.0
53 -0.001416380182203
54 -0.000109342401412
55 -0.000349120323198
56 0.000206971443977
57 0.000142148879221
58 0.0
59 0.0
60 0.000094663563087
61 -0.70855059562689
62 -0.003234377207030
63 0.006832864901868
64 0.0
65 0.000003745835932
66 0.000033533884606
67 0.0
68 -0.001416380182203
69 0.000109342401412
70 0.000349120323198
71 -0.000206971443977
72 -0.000142148879221
73 0.0
74 0.0
75 0.000094663563087
76 0.0
77 0.0
78 0.0
79 0.0
80 0.000083115666558
81 0.0
82 0.0
83 -0.001801021330162
84 0.0
85 0.0
86 0.0
87 0.0
88 0.0
89 0.0
90 0.000162278491641
91 0.000111920226806
92 0.000228573925112
93 0.0
94 0.000080700236953
95 -0.000063403903552
96 -0.000111920226806
97 -0.000228573925112
98 0.0
99 0.000080700236953
100 0.000063403903552
101 -0.000346413643169
102 0.000499197362610
103 0.0
104 -0.000336042924413
105 -0.000195466218525
106 0.000346413643169
107 -0.000499197362610
108 0.0
109 -0.000336042924413
110 0.000195466218525
111 0.0
112 0.0
113 0.0
114 0.000039611016710
115 0.0
 Sym=      4.1
 Ene=     -11.2474
 Spin= Alpha
 Occup=    2.000000
1 0.000095873748361
2 0.000153154403678
3 -0.001298543150308
4 0.0
5 0.0
6 -0.000013150775182
7 0.0
8 0.0
9 0.000669356365572
10 -0.000060475991193
11 0.000018019060465
12 0.000042456930728
13 0.0
14 0.0
15 0.0
16 -0.012870989022067
17 -0.000299841953757
18 0.003254398218175
19 0.0
20 0.000033445299491
21 0.000066333017374
22 0.0
23 0.000853741557888
24 -0.001532012637837
25 0.000159335469608
26 -0.000010070884286
27 -0.000149264585323
28 0.0
29 0.0
30 0.000038495121819
31 -0.012870989022067
32 -0.000299841953757
33 0.003254398218175
34 0.0
35 -0.000033445299491
36 0.000066333017374
37 0.0
38 -0.000853741557888
39 -0.001532012637837
40 0.000159335469608
41 -0.000010070884286
42 -0.000149264585323
43 0.0
44 0.0
45 -0.000038495121819
46 0.70780856684660
47 0.003226260751027
48 -0.008267880833279
49 0.0
50 -0.000012786519434
51 -0.000039681179483
52 0.0
53 -0.001738306637507
54 -0.001256653234929
55 -0.000465662964751
56 0.000366736638754
57 0.000098926325997
58 0.0
59 0.0
60 0.000101422665654
61 0.70780856684660
62 0.003226260751027
63 -0.008267880833279
64 0.0
65 0.000012786519434
66 -0.000039681179483
67 0.0
68 0.001738306637507
69 -0.001256653234929
70 -0.000465662964751
71 0.000366736638754
72 0.000098926325997
73 0.0
74 0.0
75 -0.000101422665654
76 -0.046520552818635
77 -0.000692366461406
78 0.004846530861473
79 0.0
80 0.0
81 -0.000052037840034
82 0.0
83 0.0
84 0.002333697754795
85 0.000512042153204
86 -0.000212779569048
87 -0.000299262584156
88 0.0
89 0.0
90 0.0
91 0.000072854678324
92 0.000413474644744
93 0.0
94 0.000067955210648
95 -0.000013786282545
96 0.000072854678324
97 0.000413474644744
98 0.0
99 -0.000067955210648
100 -0.000013786282545
101 -0.000429444921249
102 0.000381393710980
103 0.0
104 -0.000357655268959
105 -0.000191602103747
106 -0.000429444921249
107 0.000381393710980
108 0.0
109 0.000357655268959
110 -0.000191602103747
111 0.000252598023265
112 0.000617705821157
113 0.0
114 0.0
115 0.000211378264273
 Sym=      5.1
 Ene=      -1.2541
 Spin= Alpha
 Occup=    2.000000
1 -0.015632954975217
2 0.31622325564865
3 0.30863369930040
4 0.0
5 0.0
6 -0.10531557652249
7 0.0
8 0.0
9 -0.047985947151859
10 -0.013151452455553
11 0.009600285440826
12 0.003551167014727
13 0.0
14 0.0
15 0.0
16 -0.011875629481673
17 0.18959536048045
18 0.055057195521505
19 0.0
20 0.10224386213394
21 0.022262149027381
22 0.0
23 -0.005809617063122
24 0.003466333838389
25 -0.011091370329478
26 0.013822617385021
27 -0.002731247055543
28 0.0
29 0.0
30 0.015861992300158
31 -0.011875629481673
32 0.18959536048045
33 0.055057195521505
34 0.0
35 -0.10224386213394
36 0.022262149027381
37 0.0
38 0.005809617063122
39 0.003466333838389
40 -0.011091370329478
41 0.013822617385021
42 -0.002731247055543
43 0.0
44 0.0
45 -0.015861992300158
46 -0.006858499927578
47 0.089822373390314
48 0.081848599983187
49 0.0
50 0.030178744724193
51 0.035852525667036
52 0.0
53 0.031871928952101
54 0.015035471907710
55 -0.006003605940198
56 -0.001773374840017
57 0.007776980780215
58 0.0
59 0.0
60 0.001651381204149
61 -0.006858499927578
62 0.089822373390314
63 0.081848599983187
64 0.0
65 -0.030178744724193
66 0.035852525667036
67 0.0
68 -0.031871928952101
69 0.015035471907710
70 -0.006003605940198
71 -0.001773374840017
72 0.007776980780215
73 0.0
74 0.0