[Molden Format]
[Molpro variables]
_NUMVAR=  808.0000000000000    
_AVOGAD= 0.6022136736000000E+24
_BOLTZ= 0.1380658000000000E-22
_CLIGHT=  29979245800.00000    
_EV2006= 0.3674930886769165E-01
_EV= 0.3674932534394180E-01
_ENULL= 0.8854187817000000E-11
_KJOULE= 0.3808798324128737E-03
_KJOULE/MOL= 0.3808798324128737E-03
_CM= 0.4556335267302901E-05
_CM-1= 0.4556335267302901E-05
_DEB2SI= 0.3335641000000000E-29
_AMU2AU=  1822.888390000000    
_KCAL= 0.1593601117815568E-02
_KCAL/MOL= 0.1593601117815568E-02
_KELVIN2006= 0.3166828861084835E-05
_KELVIN= 0.3166814820820034E-05
_JOULE= 0.4359748200000000E-17
_HERTZ2006= 0.1519829850815779E-15
_HERTZ= 0.1519829846011223E-15
_HZ2006= 0.1519829850815779E-15
_HZ= 0.1519829846011223E-15
_JPCAL=  4.184000000000000    
_PLANCK= 0.6626075540000000E-33
_TOA2006= 0.5291772490000000    
_TOA= 0.5291772090000000    
_TOANG2006= 0.5291772490000000    
_TOANG= 0.5291772090000000    
_TORAD= 0.1745329251994330E-01
_TOCM=  219474.6306700000    
_TODEBYE=  2.541580000000000    
_TOEV2006=  27.21139610000000    
_TOE= 0.4803242000000000E-09
_TOEV=  27.21138390000000    
_TOHERTZ2006=  6579683899900000.    
_TOHERTZ=  6579683920700000.    
_TOHZ2006=  6579683899900000.    
_TOHZ=  6579683920700000.    
_TOK2006=  315773.3000000000    
_TOK=  315774.7000000000    
_TOKCAL=  627.5096000000000    
_TOKELVIN2006=  315773.3000000000    
_TOKELVIN=  315774.7000000000    
_TOKJ=  2625.500000000000    
_TOKJOULE=  2625.500000000000    
_TOKG= 0.1660565586000000E-26
_ANG2006=  1.889725988578923    
_ANG=  1.889726131421507    
_ANGSTROM2006=  1.889725988578923    
_ANGSTROM=  1.889726131421507    
_RPAREF=  0.000000000000000    
_RPADISS=  0.000000000000000    
_IGNORE_UNDEF=  2.000000000000000    
_STRICTCHECK=  0.000000000000000    
_SEW_ONEEL=  0.000000000000000    
_CPPDONE=FALSE
_DKROLL_DONE=  0.000000000000000    
_FOCKDONE=TRUE
_GRADONE=FALSE
_HESSDONE=FALSE
_INTDONE=TRUE
_SCFDONE=TRUE
_MODUL_BLOCK=FALSE
_MODUL_CUDA=FALSE
_MODUL_SLATER=FALSE
_MODUL_MRCC=FALSE
_MODUL_NBO6=FALSE
_MODUL_NECI=TRUE
_MODUL_AIMS=TRUE
_MRCC_EXEC=
_FITC_AO_SAVED=FALSE
_FITC_MO_SAVED=FALSE
_SHARED_FS=TRUE
_LSTYP=SEWARD
_INTYP=INTS
_GEOMTYP=ZMAT
_GRADTYP=ALASKA
_DIRECT=FALSE
_DKHO= -1.000000000000000    
_SYNCM=  0.000000000000000    
_BASIS=USERDEF
_ZORIENT=  1.000000000000000    
_NELEC=  58.00000000000000    
!SPIN=  0.000000000000000    
_QSDSTEP=  0.000000000000000    
_QSDIRC=  0.000000000000000    
_PROGRAM=HF-SCF
_CPUSTEP=  4.960000000000001    
_SYSSTEP= 0.1400000000000000    
_WALLSTEP=  2.530000000000000    
!DFSCF=  0.000000000000000    
!SCSGRD=  0.000000000000000    
_BASINP=  610.0000000000000    
_CPUTOT=  9.430000000000001    
_CPUSORT= 0.5800000000000005    
_SYSSORT= 0.2700000000000000    
_WALLSORT= 0.9000000022351742    
_DFTEXFAC=  1.000000000000000    
_DMX= 0.7004600220080075    
_DMY=  0.000000000000000    
_DMZ= -1.075299247646417    
_DMX_SCF= 0.7004600220080075    
_DMY_SCF=  0.000000000000000    
_DMZ_SCF= -1.075299247646417    
_EHOMO=-0.3229767027609272    
_ELUMO= 0.1116440972967105    
_ENERGY= -412.1165968359811    
_ENUC=  360.8014524679945    
_EPS1= -20.66490048554884    
_EPS2=-0.7354072348367621    
_GRADEXFAC=  9999.000000000000    
_GRADMETHOD=  1.000000000000000    
_NMRMETHOD=  0.000000000000000    
!GRID_FREEZE= -1.000000000000000    
_ITERATIONS=  11.00000000000000    
_LASTNELEC=  58.00000000000000    
_LASTSPIN=  0.000000000000000    
_LASTSYM=  1.000000000000000    
_MPP_PROG=  0.000000000000000    
_NPROC_MPP=  1.000000000000000    
_NPROC_MPPX=  1.000000000000000    
_NPROC_SMP=  16.00000000000000    
_NUMSTEP=  0.000000000000000    
_ORBITAL=  2100.200000000000    
_PI=  3.141592653589793    
_SEIG_MIN= 0.1419611248759593E-02
_SEWPROP=TRUE
_STATUS=  1.000000000000000    
_SYSTOT= 0.5400000000000000    
_VERSION=  2012001.000000000    
_WALLTOT=  8.820000000000000    
_DATE=24-Jan-19
_LASTORB=RHF
_MACHINE=Linux-4.9.0-8-amd64/nympha18.meta.zcu.cz(x86_64) (16 PROC) 64 bit serial version
_OUTPUT=/auto/brno2/home/masiz4am/git/UKRmol-in/tests/suite/Cs_target_HF2/molpro.xml
_PGROUP=Cs
_TIME=16:16:28
_LIBMOL=/afs/ics.muni.cz/software/molpro-2012.1/molprop_2012_1_Linux_x86_64_i8/lib/
!VIBCNT=  0.000000000000000    
!RGHFCNT=  0.000000000000000    
!SURFREC=  0.000000000000000    
!POLYREC=  0.000000000000000    
!DIPREC=  0.000000000000000    
!VSCFREC=  0.000000000000000    
!VCIREC=  0.000000000000000    
!PVCIREC=  0.000000000000000    
!VMP2REC=  0.000000000000000    
!VMCSCFREC=  0.000000000000000    
!VMRCIREC=  0.000000000000000    
!VIBINFO=  0.000000000000000    
!GAREC=  0.000000000000000    
!SCFORB=  21002.00000000000    
!NEWMOL= -1.000000000000000    
!NEWSYM= -1.000000000000000    
_SLFILES=slscratch
_NGSSTO=  9.000000000000000    
_SIN=SIN
_COS=COS
_TAN=TAN
_ACOS=ACOS
_ASIN=ASIN
_ATAN=ATAN
_COSH=COSH
_SINH=SINH
_TANH=TANH
_ABS=ABS
_MOD=MOD
_ERF=ERF
_REFC=REFC
_ERFC=ERFC
_HYPOT=HYPOT
_J0=J0
_J1=J1
_JN=JN
_GAMMA=GAMMA
_LGAMMA=LGAMMA
_Y0=Y0
_Y1=Y1
_YN=YN
_EXP=EXP
_LOG=LOG
_LOG10=LOG10
_SQRT=SQRT
_INT=INT
_NINT=NINT
_MAX=MAX
_MIN=MIN
_COSMO=  0.000000000000000    
_COSMOIT=  0.000000000000000    
_COSMOES=  0.000000000000000    
_COSMOEDS=  0.000000000000000    
_COSMOEC=  0.000000000000000    
_COSMOEDCORR=  0.000000000000000    
_FEPSI=  1.000000000000000    
_SL_IsMM=  0.000000000000000    
_SL_NSYM=  2.000000000000000    
_SL_System_BitSw=  0.000000000000000    
_SL_Unique_atoms=  0.000000000000000    
_SL_GRAD=  0.000000000000000    
_SL_MAXUPD_Hess=  5.000000000000000    
_SL_N_PRINT_COD=  5.000000000000000    
_SL_PRINT_CODES=  0.000000000000000    
_SL_BasType=  0.000000000000000    
_SL_Energy_Pred=  0.000000000000000    
_SL_New_Coords=  0.000000000000000    
_SL_Total_Nuclea=  0.000000000000000    
_SL_Highest_Mltp=  0.000000000000000    
_SL_Ref_Geom=  0.000000000000000    
_SL_Symmetry_ope=  1.000000000000000    
_SL_agrad=  0.000000000000000    
_SL_GrdMax=  0.000000000000000    
_SL_GrdNorm=  0.000000000000000    
_SL_GrdRMS=  0.000000000000000    
!LATTICE= -1.000000000000000    
!NEWLATTICE=  0.000000000000000    
!LATGRAD_VAR=FALSE
!SEW_LATTICE=  1.000000000000000    
!LOCAL=  0.000000000000000    
!SAVEDOM= -1.000000000000000    
!RESTDOM= -1.000000000000000    
!SAVEDOM_HF= -1.000000000000000    
!RESTDOM_HF= -1.000000000000000    
!HESSREC=  0.000000000000000    
!FREQREC=  0.000000000000000    
!NMODREC=  0.000000000000000    
!GTASKS=  0.000000000000000    
!HTASKS=  0.000000000000000    
!THRCHG= 0.1000000000000000    
!DEBUG= -1.000000000000000    
!CFIT_CPHF=  0.000000000000000    
!RDOMAUX_CPHF=  3.000000000000000    
!THRAO_CPHF= 0.1000000000000000E-09
!THRMO_CPHF= 0.1000000000000000E-08
!THROV_CPHF= 0.1000000000000000E-11
!THRSW_CPHF= 0.1000000000000000E-09
!THRPROD_CPHF= 0.1000000000000000E-08
!THRAOPR_CPHF= 0.1000000000000000E-11
!CFIT_SCFGRD=  0.000000000000000    
!RDOMAUX_SCFGRD=  5.000000000000000    
!THRAO_SCFGRD= 0.1000000000000000E-09
!THRMO_SCFGRD= 0.1000000000000000E-08
!THROV_SCFGRD= 0.1000000000000000E-11
!THRSW_SCFGRD= 0.1000000000000000E-09
!THRPROD_SCFGRD= 0.1000000000000000E-08
!THRAOPR_SCFGRD= 0.1000000000000000E-11
!LOCFIT_SCF=  0.000000000000000    
!LOCFIT_MP2= -1.000000000000000    
_RIDOM=  0.000000000000000    
!CC2_METHOD=  0.000000000000000    
_BASIS2006=FALSE
_SVDDEL= -1.000000000000000    
_SVDDELA= -1.000000000000000    
_SVDDELP= -1.000000000000000    
_SVDDELF= -1.000000000000000    
_SVDDELS= -1.000000000000000    
_SVDDEL_ABS= -1.000000000000000    
_SVDDELA_ABS= -1.000000000000000    
_SVDDELP_ABS= -1.000000000000000    
_SVDDELF_ABS= -1.000000000000000    
_SVDDELS_ABS= -1.000000000000000    
_MAXBASIS=  0.000000000000000    
!OPT_CONICAL=  0.000000000000000    
!CLEARSP_JGRID=  0.000000000000000    
_4EXT_NDISKS=  1.000000000000000    
!ZMP=  0.000000000000000    
_MAXIT_ZMP=  500.0000000000000    
_MAXDIS_ZMP=  100.0000000000000    
_ACCU_ZMP=  14.00000000000000    
_SHIFTA_ZMP= -100.0000000000000    
!EMBEDFLAG=  1.000000000000000    
!EMBED=FALSE
!EMBED_F12=FALSE
!EMBEDNUC=  0.000000000000000    
_EMBEDENERGY=  0.000000000000000    
_KSPACETIME=  0.000000000000000    
_RSPACETIME=  0.000000000000000    
!EMBED_DFC=FALSE
!NUM_VOIDS=  0.000000000000000    
_IBODY=  0.000000000000000    
_EMBE_TOTAL=  0.000000000000000    
_EMBE_HF=  0.000000000000000    
_EMBE_CORR=  0.000000000000000    
!EDFT=  0.000000000000000    
_IFASTLATGRAD=  0.000000000000000    
_SINDEX=  0.000000000000000    
GX1= 0.7342000000000000    
GY1=  0.000000000000000    
GZ1=  2.390300000000000    
GX2= -2.003500000000000    
GY2=  0.000000000000000    
GZ2=  2.328300000000000    
GX3=  1.878600000000000    
GY3=  0.000000000000000    
GZ3=  0.000000000000000    
GX4= -3.216300000000000    
GY4=  0.000000000000000    
GZ4= 0.1009000000000000    
GX5=  2.017300000000000    
GY5=  0.000000000000000    
GZ5=  4.309300000000000    
GX6= -1.929400000000000    
GY6=  0.000000000000000    
GZ6= -2.151500000000000    
GX7= 0.6820000000000001    
GY7=  0.000000000000000    
GZ7= -2.309400000000000    
GX8=  1.789900000000000    
GY8=  0.000000000000000    
GZ8= -4.331100000000000    
GX9= -2.981200000000000    
GY9=  0.000000000000000    
GZ9=  4.109200000000000    
GX10=  3.780800000000000    
GY10=  0.000000000000000    
GZ10=-0.7290000000000001E-01
GX11= -5.251700000000000    
GY11=  0.000000000000000    
GZ11=-0.4140000000000000E-01
GX12=  2.829700000000000    
GY12=  0.000000000000000    
GZ12= -3.821000000000000    
[Atoms] Angs
C     1    6         0.3885219068        0.0000000000        1.2648922827
C     2    6        -1.0602065382        0.0000000000        1.2320832957
N     3    7         0.9941123048        0.0000000000        0.0000000000
C     4    6        -1.7019926573        0.0000000000        0.0533939804
O     5    8         1.0675091837        0.0000000000        2.2803833467
N     6    7        -1.0209945070        0.0000000000       -1.1385247652
C     7    6         0.3608988565        0.0000000000       -1.2220818465
O     8    8         0.9471742864        0.0000000000       -2.2919194099
H     9    1        -1.5775830955        0.0000000000        2.1744949872
H    10    1         2.0007131918        0.0000000000       -0.0385770185
H    11    1        -2.7790799485        0.0000000000       -0.0219079365
H    12    1         1.4974127483        0.0000000000       -2.0219861156
[GTO]
  1 0
 s    8  1.00
  0.6665000000D+04  0.6915839628D-03
  0.1000000000D+04  0.5325796153D-02
  0.2280000000D+03  0.2706072104D-01
  0.6471000000D+02  0.1016568461D+00
  0.2106000000D+02  0.2745748236D+00
  0.7495000000D+01  0.4482943189D+00
  0.2797000000D+01  0.2849026107D+00
  0.5215000000D+00  0.1519485921D-01
 s    8  1.00
  0.6665000000D+04 -0.2932696527D-03
  0.1000000000D+04 -0.2318035474D-02
  0.2280000000D+03 -0.1149978604D-01
  0.6471000000D+02 -0.4682672701D-01
  0.2106000000D+02 -0.1284661688D+00
  0.7495000000D+01 -0.3012662725D+00
  0.2797000000D+01 -0.2556307023D+00
  0.5215000000D+00  0.1093793361D+01
 s    1  1.00
  0.1596000000D+00  0.1000000000D+01
 p    3  1.00
  0.9439000000D+01  0.5697925159D-01
  0.2002000000D+01  0.3132072115D+00
  0.5456000000D+00  0.7603767417D+00
 p    1  1.00
  0.1517000000D+00  0.1000000000D+01
 d    1  1.00
  0.5500000000D+00  0.1000000000D+01
  
  2 0
 s    8  1.00
  0.6665000000D+04  0.6915839628D-03
  0.1000000000D+04  0.5325796153D-02
  0.2280000000D+03  0.2706072104D-01
  0.6471000000D+02  0.1016568461D+00
  0.2106000000D+02  0.2745748236D+00
  0.7495000000D+01  0.4482943189D+00
  0.2797000000D+01  0.2849026107D+00
  0.5215000000D+00  0.1519485921D-01
 s    8  1.00
  0.6665000000D+04 -0.2932696527D-03
  0.1000000000D+04 -0.2318035474D-02
  0.2280000000D+03 -0.1149978604D-01
  0.6471000000D+02 -0.4682672701D-01
  0.2106000000D+02 -0.1284661688D+00
  0.7495000000D+01 -0.3012662725D+00
  0.2797000000D+01 -0.2556307023D+00
  0.5215000000D+00  0.1093793361D+01
 s    1  1.00
  0.1596000000D+00  0.1000000000D+01
 p    3  1.00
  0.9439000000D+01  0.5697925159D-01
  0.2002000000D+01  0.3132072115D+00
  0.5456000000D+00  0.7603767417D+00
 p    1  1.00
  0.1517000000D+00  0.1000000000D+01
 d    1  1.00
  0.5500000000D+00  0.1000000000D+01
  
  3 0
 s    8  1.00
  0.9046000000D+04  0.6996174134D-03
  0.1357000000D+04  0.5386054630D-02
  0.3093000000D+03  0.2739102119D-01
  0.8773000000D+02  0.1031505920D+00
  0.2856000000D+02  0.2785706633D+00
  0.1021000000D+02  0.4482948495D+00
  0.3838000000D+01  0.2780859284D+00
  0.7466000000D+00  0.1543156123D-01
 s    8  1.00
  0.9046000000D+04 -0.3049900960D-03
  0.1357000000D+04 -0.2408026379D-02
  0.3093000000D+03 -0.1194444873D-01
  0.8773000000D+02 -0.4892599291D-01
  0.2856000000D+02 -0.1344727247D+00
  0.1021000000D+02 -0.3151125777D+00
  0.3838000000D+01 -0.2428578325D+00
  0.7466000000D+00  0.1094382207D+01
 s    1  1.00
  0.2248000000D+00  0.1000000000D+01
 p    3  1.00
  0.1355000000D+02  0.5890567677D-01
  0.2917000000D+01  0.3204611067D+00
  0.7973000000D+00  0.7530420618D+00
 p    1  1.00
  0.2185000000D+00  0.1000000000D+01
 d    1  1.00
  0.8170000000D+00  0.1000000000D+01
  
  4 0
 s    8  1.00
  0.6665000000D+04  0.6915839628D-03
  0.1000000000D+04  0.5325796153D-02
  0.2280000000D+03  0.2706072104D-01
  0.6471000000D+02  0.1016568461D+00
  0.2106000000D+02  0.2745748236D+00
  0.7495000000D+01  0.4482943189D+00
  0.2797000000D+01  0.2849026107D+00
  0.5215000000D+00  0.1519485921D-01
 s    8  1.00
  0.6665000000D+04 -0.2932696527D-03
  0.1000000000D+04 -0.2318035474D-02
  0.2280000000D+03 -0.1149978604D-01
  0.6471000000D+02 -0.4682672701D-01
  0.2106000000D+02 -0.1284661688D+00
  0.7495000000D+01 -0.3012662725D+00
  0.2797000000D+01 -0.2556307023D+00
  0.5215000000D+00  0.1093793361D+01
 s    1  1.00
  0.1596000000D+00  0.1000000000D+01
 p    3  1.00
  0.9439000000D+01  0.5697925159D-01
  0.2002000000D+01  0.3132072115D+00
  0.5456000000D+00  0.7603767417D+00
 p    1  1.00
  0.1517000000D+00  0.1000000000D+01
 d    1  1.00
  0.5500000000D+00  0.1000000000D+01
  
  5 0
 s    8  1.00
  0.1172000000D+05  0.7096459465D-03
  0.1759000000D+04  0.5467272292D-02
  0.4008000000D+03  0.2782311861D-01
  0.1137000000D+03  0.1047477397D+00
  0.3703000000D+02  0.2829208464D+00
  0.1327000000D+02  0.4484952387D+00
  0.5025000000D+01  0.2708168852D+00
  0.1013000000D+01  0.1545029161D-01
 s    8  1.00
  0.1172000000D+05 -0.3144434117D-03
  0.1759000000D+04 -0.2482137681D-02
  0.4008000000D+03 -0.1231635538D-01
  0.1137000000D+03 -0.5053891734D-01
  0.3703000000D+02 -0.1393849033D+00
  0.1327000000D+02 -0.3250774948D+00
  0.5025000000D+01 -0.2298483076D+00
  0.1013000000D+01  0.1095379347D+01
 s    1  1.00
  0.3023000000D+00  0.1000000000D+01
 p    3  1.00
  0.1770000000D+02  0.6267916628D-01
  0.3854000000D+01  0.3335365659D+00
  0.1046000000D+01  0.7412396416D+00
 p    1  1.00
  0.2753000000D+00  0.1000000000D+01
 d    1  1.00
  0.1185000000D+01  0.1000000000D+01
  
  6 0
 s    8  1.00
  0.9046000000D+04  0.6996174134D-03
  0.1357000000D+04  0.5386054630D-02
  0.3093000000D+03  0.2739102119D-01
  0.8773000000D+02  0.1031505920D+00
  0.2856000000D+02  0.2785706633D+00
  0.1021000000D+02  0.4482948495D+00
  0.3838000000D+01  0.2780859284D+00
  0.7466000000D+00  0.1543156123D-01
 s    8  1.00
  0.9046000000D+04 -0.3049900960D-03
  0.1357000000D+04 -0.2408026379D-02
  0.3093000000D+03 -0.1194444873D-01
  0.8773000000D+02 -0.4892599291D-01
  0.2856000000D+02 -0.1344727247D+00
  0.1021000000D+02 -0.3151125777D+00
  0.3838000000D+01 -0.2428578325D+00
  0.7466000000D+00  0.1094382207D+01
 s    1  1.00
  0.2248000000D+00  0.1000000000D+01
 p    3  1.00
  0.1355000000D+02  0.5890567677D-01
  0.2917000000D+01  0.3204611067D+00
  0.7973000000D+00  0.7530420618D+00
 p    1  1.00
  0.2185000000D+00  0.1000000000D+01
 d    1  1.00
  0.8170000000D+00  0.1000000000D+01
  
  7 0
 s    8  1.00
  0.6665000000D+04  0.6915839628D-03
  0.1000000000D+04  0.5325796153D-02
  0.2280000000D+03  0.2706072104D-01
  0.6471000000D+02  0.1016568461D+00
  0.2106000000D+02  0.2745748236D+00
  0.7495000000D+01  0.4482943189D+00
  0.2797000000D+01  0.2849026107D+00
  0.5215000000D+00  0.1519485921D-01
 s    8  1.00
  0.6665000000D+04 -0.2932696527D-03
  0.1000000000D+04 -0.2318035474D-02
  0.2280000000D+03 -0.1149978604D-01
  0.6471000000D+02 -0.4682672701D-01
  0.2106000000D+02 -0.1284661688D+00
  0.7495000000D+01 -0.3012662725D+00
  0.2797000000D+01 -0.2556307023D+00
  0.5215000000D+00  0.1093793361D+01
 s    1  1.00
  0.1596000000D+00  0.1000000000D+01
 p    3  1.00
  0.9439000000D+01  0.5697925159D-01
  0.2002000000D+01  0.3132072115D+00
  0.5456000000D+00  0.7603767417D+00
 p    1  1.00
  0.1517000000D+00  0.1000000000D+01
 d    1  1.00
  0.5500000000D+00  0.1000000000D+01
  
  8 0
 s    8  1.00
  0.1172000000D+05  0.7096459465D-03
  0.1759000000D+04  0.5467272292D-02
  0.4008000000D+03  0.2782311861D-01
  0.1137000000D+03  0.1047477397D+00
  0.3703000000D+02  0.2829208464D+00
  0.1327000000D+02  0.4484952387D+00
  0.5025000000D+01  0.2708168852D+00
  0.1013000000D+01  0.1545029161D-01
 s    8  1.00
  0.1172000000D+05 -0.3144434117D-03
  0.1759000000D+04 -0.2482137681D-02
  0.4008000000D+03 -0.1231635538D-01
  0.1137000000D+03 -0.5053891734D-01
  0.3703000000D+02 -0.1393849033D+00
  0.1327000000D+02 -0.3250774948D+00
  0.5025000000D+01 -0.2298483076D+00
  0.1013000000D+01  0.1095379347D+01
 s    1  1.00
  0.3023000000D+00  0.1000000000D+01
 p    3  1.00
  0.1770000000D+02  0.6267916628D-01
  0.3854000000D+01  0.3335365659D+00
  0.1046000000D+01  0.7412396416D+00
 p    1  1.00
  0.2753000000D+00  0.1000000000D+01
 d    1  1.00
  0.1185000000D+01  0.1000000000D+01
  
  9 0
 s    3  1.00
  0.1301000000D+02  0.3349872639D-01
  0.1962000000D+01  0.2348008012D+00
  0.4446000000D+00  0.8136829579D+00
 s    1  1.00
  0.1220000000D+00  0.1000000000D+01
 p    1  1.00
  0.7270000000D+00  0.1000000000D+01
  
 10 0
 s    3  1.00
  0.1301000000D+02  0.3349872639D-01
  0.1962000000D+01  0.2348008012D+00
  0.4446000000D+00  0.8136829579D+00
 s    1  1.00
  0.1220000000D+00  0.1000000000D+01
 p    1  1.00
  0.7270000000D+00  0.1000000000D+01
  
 11 0
 s    3  1.00
  0.1301000000D+02  0.3349872639D-01
  0.1962000000D+01  0.2348008012D+00
  0.4446000000D+00  0.8136829579D+00
 s    1  1.00
  0.1220000000D+00  0.1000000000D+01
 p    1  1.00
  0.7270000000D+00  0.1000000000D+01
  
 12 0
 s    3  1.00
  0.1301000000D+02  0.3349872639D-01
  0.1962000000D+01  0.2348008012D+00
  0.4446000000D+00  0.8136829579D+00
 s    1  1.00
  0.1220000000D+00  0.1000000000D+01
 p    1  1.00
  0.7270000000D+00  0.1000000000D+01
 
 
[MO]
 Sym=      1.1
 Ene=     -20.6649
 Spin= Alpha
 Occup=    2.000000
1 -0.000102232102889
2 -0.000190318165519
3 -0.000056202652427
4 -0.000014592114361
5 0.0
6 0.000069264128116
7 0.000102229322916
8 0.0
9 -0.000198258224996
10 0.000049083016300
11 -0.000021211249565
12 -0.000027871766735
13 0.0
14 -0.000067748663368
15 0.0
16 -0.000051764994021
17 -0.000100412165086
18 -0.000072863617723
19 -0.000003176597666
20 0.0
21 0.000032184861147
22 0.000083024834759
23 0.0
24 0.000060855316860
25 0.000006578963958
26 -0.000005975382891
27 -0.000000603581067
28 0.0
29 0.000001011168425
30 0.0
31 -0.000087454742730
32 -0.000174144238733
33 0.000611340575157
34 0.000067071854252
35 0.0
36 0.000055142520531
37 -0.000933805546281
38 0.0
39 0.000157808804475
40 0.000177598221561
41 -0.000028451231059
42 -0.000149146990502
43 0.0
44 0.000055423908688
45 0.0
46 -0.000127543821484
47 -0.000230350233197
48 0.000328408733949
49 -0.000064558469606
50 0.0
51 0.000038305786448
52 0.000537753685603
53 0.0
54 -0.000020632725310
55 -0.000016276907230
56 -0.000055802520671
57 0.000072079427900
58 0.0
59 -0.000002997103704
60 0.0
61 -0.000009053283674
62 -0.000012877405572
63 0.000113262784615
64 -0.000006612795937
65 0.0
66 -0.000013559695226
67 -0.000059426540732
68 0.0
69 0.000004735856037
70 0.000006105625932
71 -0.000002047242196
72 -0.000004058383736
73 0.0
74 0.000015092317866
75 0.0
76 -0.000118687816814
77 -0.000235301508470
78 0.000773505804824
79 -0.000062442005426
80 0.0
81 0.000006513441052
82 0.000227560918829
83 0.0
84 0.000526775197656
85 -0.000034910071988
86 -0.000013960589495
87 0.000048870661483
88 0.0
89 0.000174977594990
90 0.0
91 0.000270466123230
92 0.000420647763146
93 0.001638542687637
94 0.000090829194669
95 0.0
96 -0.000116888814892
97 0.001997936142465
98 0.0
99 -0.002979926947526
100 0.000249168327000
101 0.000112294281603
102 -0.000361462608603
103 0.0
104 0.000370769093098
105 0.0
106 1.00287253996353
107 0.005449522444024
108 -0.004569488271163
109 0.002289751086553
110 0.0
111 0.002980395115494
112 0.001444773205047
113 0.0
114 -0.001339768200998
115 0.000667833319688
116 -0.000525684531334
117 -0.000142148788354
118 0.0
119 0.000766849897155
120 0.0
121 0.000006352761498
122 0.000051296100624
123 0.000004840395836
124 0.0
125 -0.000015523878737
126 0.000126911618476
127 0.000115659550911
128 0.000056909359268
129 0.0
130 0.000026336385849
131 0.000062327194877
132 0.000260295735710
133 0.000013533844564
134 0.0
135 0.000021885183331
136 -0.004382338447340
137 -0.000536762990368
138 0.002166353347361
139 0.0
140 0.000843036096465
 Sym=      2.1
 Ene=     -20.5266
 Spin= Alpha
 Occup=    2.000000
1 0.000317333520418
2 0.000441776945592
3 0.000978864038385
4 -0.000066761803769
5 0.0
6 -0.000032812008190
7 0.001817137296997
8 0.0
9 0.003624295982597
10 0.000114661862724
11 0.000242715205447
12 -0.000357377068171
13 0.0
14 -0.000661185443142
15 0.0
16 -0.000083982939554
17 -0.000152268231661
18 0.001847454618244
19 -0.000043839309209
20 0.0
21 0.000071195191860
22 -0.000057054175549
23 0.0
24 -0.001864826733524
25 -0.000075369862028
26 -0.000119170847764
27 0.000194540709791
28 0.0
29 -0.000437606284042
30 0.0
31 -0.000132304060444
32 -0.000257961887257
33 0.001061176347364
34 0.000078921769454
35 0.0
36 -0.000097168033128
37 -0.000856396096073
38 0.0
39 0.000224100486704
40 0.000211112545074
41 -0.000035402711579
42 -0.000175709833495
43 0.0
44 -0.000056451266132
45 0.0
46 -0.000007185332154
47 -0.000014266662164
48 -0.001288144051600
49 -0.000032414325206
50 0.0
51 -0.000008748211648
52 0.000072145171298
53 0.0
54 -0.000554103729990
55 -0.000134808720690
56 -0.000033130943398
57 0.000167939664087
58 0.0
59 -0.000044121754270
60 0.0
61 1.00140087762873
62 0.002054297640326
63 -0.006836172421963
64 -0.000933789382026
65 0.0
66 -0.001528176600146
67 0.000997016118837
68 0.0
69 0.001425741260540
70 0.000067799625914
71 -0.000177286639534
72 0.000109487013619
73 0.0
74 0.000057252940515
75 0.0
76 0.000004832431874
77 0.000000828303405
78 -0.000293430849545
79 -0.000015837117859
80 0.0
81 -0.000008621461363
82 0.000060724494276
83 0.0
84 -0.000135121906056
85 -0.000029856630463
86 0.000019387878762
87 0.000010468751701
88 0.0
89 0.000042191314113
90 0.0
91 -0.000117709586228
92 -0.000214436021107
93 0.000110225444291
94 -0.000006034126887
95 0.0
96 -0.000048311204218
97 -0.000014936269333
98 0.0
99 0.000475880790597
100 0.000104937680255
101 -0.000039664847058
102 -0.000065272833197
103 0.0
104 0.000083699603692
105 0.0
106 -0.000007397697301
107 -0.000015565085254
108 0.000165420996745
109 -0.000000990698996
110 0.0
111 0.000016455907729
112 -0.000175113858220
113 0.0
114 0.000045235186191
115 -0.000010388869848
116 0.000002357905269
117 0.000008030964579
118 0.0
119 -0.000026739429159
120 0.0
121 -0.000127487090448
122 0.000389716420990
123 -0.000057199983871
124 0.0
125 0.000189364598939
126 0.000054986599096
127 0.000021245868062
128 0.000087456887121
129 0.0
130 -0.000059618481236
131 0.000167078663128
132 0.000121987853324
133 0.000053009328627
134 0.0
135 0.000009820689826
136 0.000043776482712
137 0.000192146436540
138 0.000012159130381
139 0.0
140 -0.000013605217636
 Sym=      3.1
 Ene=     -15.6581
 Spin= Alpha
 Occup=    2.000000
1 0.000050321030270
2 0.000019190684815
3 0.002326354260499
4 0.000042510743895
5 0.0
6 -0.000118141942131
7 0.001003741559535
8 0.0
9 -0.002950621024227
10 0.000002463852215
11 0.000007303570915
12 -0.000009767423130
13 0.0
14 0.000230074021714
15 0.0
16 0.000001570271778
17 -0.000005500434295
18 -0.001374647149941
19 -0.000083693877054
20 0.0
21 0.000002713637433
22 0.000698224010519
23 0.0
24 0.002140834230827
25 0.000007244036335
26 -0.000052551402883
27 0.000045307366548
28 0.0
29 0.000052705469949
30 0.0
31 1.00200907435183
32 0.003671854807185
33 -0.009989593237605
34 0.000044283628723
35 0.0
36 -0.000370354696053
37 0.001836261254025
38 0.0
39 0.000000916044230
40 0.000187734501888
41 -0.000110638638781
42 -0.000077095863107
43 0.0
44 0.000010825521943
45 0.0
46 -0.000054322793111
47 -0.000089462518296
48 0.002613290771136
49 -0.000005426222240
50 0.0
51 -0.000028440836983
52 0.000619014271568
53 0.0
54 0.000741122681746
55 0.000064018219229
56 -0.000081948133315
57 0.000017929914086
58 0.0
59 0.000005332977644
60 0.0
61 -0.000079980515784
62 -0.000168819593478
63 0.000447525404997
64 0.000049852461229
65 0.0
66 0.000022199164440
67 -0.000368465070447
68 0.0
69 0.000385791000980
70 0.000061652645025
71 0.000001033528522
72 -0.000062686173547
73 0.0
74 -0.000017826753635
75 0.0
76 -0.000170079871430
77 -0.000078857822561
78 -0.000237193062373
79 -0.000087281938107
80 0.0
81 0.000022414521333
82 0.000109460159150
83 0.0
84 -0.000780808884791
85 0.000003207768074
86 -0.000041067708853
87 0.000037859940779
88 0.0
89 -0.000064944835324
90 0.0
91 0.000093992837124
92 0.000066336974853
93 0.002504209580884
94 0.000069378373411
95 0.0
96 0.000084479071695
97 0.001017133665236
98 0.0
99 0.002218138083260
100 0.000054477349148
101 0.000081870046625
102 -0.000136347395773
103 0.0
104 -0.000382653890987
105 0.0
106 -0.000032358941649
107 -0.000090818712448
108 -0.000065229294709
109 0.000036711512192
110 0.0
111 -0.000056148871697
112 -0.000582756061277
113 0.0
114 -0.000430228475815
115 0.000050163116812
116 0.000025063303991
117 -0.000075226420802
118 0.0
119 -0.000044735218367
120 0.0
121 -0.000161186114928
122 -0.000354093352102
123 -0.000046755771946
124 0.0
125 -0.000062291174293
126 -0.000194096103654
127 -0.000063772652913
128 0.000588900554327
129 0.0
130 -0.000014372232894
131 -0.000119809567413
132 0.000093158670810
133 -0.000039908306390
134 0.0
135 -0.000037817831512
136 0.000239600527721
137 0.000109961343403
138 0.000048574423704
139 0.0
140 -0.000012574613179
 Sym=      4.1
 Ene=     -15.5530
 Spin= Alpha
 Occup=    2.000000
1 -0.000042744717082
2 -0.000081429744283
3 0.001999395448388
4 0.000049378506438
5 0.0
6 -0.000007852321778
7 -0.001021230238186
8 0.0
9 -0.000049956286836
10 0.000030468991897
11 -0.000040851563348
12 0.000010382571451
13 0.0
14 0.000032611962758
15 0.0
16 0.000041449058017
17 0.000056935694078
18 -0.002871042016563
19 0.000029179434629
20 0.0
21 0.000150340494746
22 -0.001568054847173
23 0.0
24 0.001220366285375
25 0.000182888294991
26 -0.000039301962562
27 -0.000143586332429
28 0.0
29 0.000016013718193
30 0.0
31 0.000055907345527
32 -0.000165626723079
33 -0.000085838265259
34 0.000058736818196
35 0.0
36 0.000112342913908
37 0.000674581464492
38 0.0
39 -0.000431353725060
40 0.000034752706965
41 -0.000099355367919
42 0.000064602660954
43 0.0
44 -0.000089183992150
45 0.0
46 0.000104360396210
47 0.000077486547335
48 0.003472834279812
49 -0.000018961555516
50 0.0
51 -0.000017944791967
52 0.002613807906947
53 0.0
54 -0.000718992544139
55 0.000327644021027
56 0.000066808914663
57 -0.000394452935690
58 0.0
59 0.000438172877544
60 0.0
61 -0.000005279323694
62 -0.000012156851769
63 -0.000066529340147
64 -0.000012374469182
65 0.0
66 0.000024833139673
67 0.000178745462696
68 0.0
69 -0.000024139280299
70 -0.000005169904242
71 0.000001485042705
72 0.000003684861537
73 0.0
74 -0.000014763926529
75 0.0
76 1.00188453903703
77 0.003181558343362
78 -0.010000128496756
79 0.001198821033236
80 0.0
81 0.001737429244670
82 -0.001837235715948
83 0.0
84 -0.002281797969772
85 0.000111948221284
86 -0.000158513133709
87 0.000046564912425
88 0.0
89 -0.000113618302947
90 0.0
91 0.000166768695333
92 0.000158885355375
93 0.002279483149861
94 -0.000106578583373
95 0.0
96 0.000059536586238
97 -0.003028553279329
98 0.0
99 0.000982775905756
100 -0.000548275740087
101 0.000212881460611
102 0.000335394279475
103 0.0
104 0.000004064770900
105 0.0
106 -0.000067988214978
107 -0.000145920049436
108 0.000664800788745
109 0.000084995669722
110 0.0
111 -0.000106106351111
112 0.000449447230605
113 0.0
114 0.000286969683221
115 0.000014378630084
116 -0.000025914712606
117 0.000011536082522
118 0.0
119 0.000040145815458
120 0.0
121 -0.000054261840519
122 -0.000483611107072
123 0.000090925245220
124 0.0
125 -0.000001643249906
126 -0.000156377264024
127 0.000105313236823
128 -0.000003749992929
129 0.0
130 -0.000000438774711
131 -0.000112876918744
132 0.000646789917456
133 -0.000186759246758
134 0.0
135 0.000155209505202
136 -0.000063988276581
137 0.000510365951643
138 -0.000065449797838
139 0.0
140 0.000268345902525
 Sym=      5.1
 Ene=     -11.4462
 Spin= Alpha
 Occup=    2.000000
1 -0.000369345400243
2 -0.000399822658291
3 0.002509820293117
4 -0.000008645490175
5 0.0
6 0.000051796417883
7 -0.002472780486207
8 0.0
9 -0.000963546271427
10 -0.000112570182502
11 -0.000157557086102
12 0.000270127268605
13 0.0
14 0.000158673677345
15 0.0
16 0.000150208310412
17 0.000303158149108
18 -0.005012131788090
19 -0.000007463070978
20 0.0
21 0.000019468092873
22 -0.001416568131321
23 0.0
24 0.001791776524257
25 0.000012218065185
26 0.000087866864467
27 -0.000100084929653
28 0.0
29 0.000093021377395
30 0.0
31 0.000111002658931
32 0.000603586358983
33 -0.002961036920316
34 -0.000156296128263
35 0.0
36 -0.000248105509224
37 0.001100701929260
38 0.0
39 0.002409866244102
40 -0.000199132755376
41 0.000370567732719
42 -0.000171434977343
43 0.0
44 -0.000084645222806
45 0.0
46 -0.000185165685115
47 -0.000217305229714
48 0.003130678171642
49 -0.000026575917280
50 0.0
51 -0.000027765350577
52 0.002538948209755
53 0.0
54 0.000503391903849
55 0.000234953718682
56 -0.000180405647245