[Molden Format]
[Atoms] (AU)
O    1    8         0.000000000000       0.000000000000      -0.124013990239
H    2    1        -0.000000000000       1.431150000000       0.984096009761
H    3    1         0.000000000000      -1.431150000000       0.984096009761
[GTO]
  1 0
 s    8  1.00
    11720.0000000000         0.0007100000
     1759.0000000000         0.0054700000
      400.8000000000         0.0278370000
      113.7000000000         0.1048000000
       37.0300000000         0.2830620000
       13.2700000000         0.4487190000
        5.0250000000         0.2709520000
        1.0130000000         0.0154580000
 s    8  1.00
    11720.0000000000        -0.0001600000
     1759.0000000000        -0.0012630000
      400.8000000000        -0.0062670000
      113.7000000000        -0.0257160000
       37.0300000000        -0.0709240000
       13.2700000000        -0.1654110000
        5.0250000000        -0.1169550000
        1.0130000000         0.5573680000
 s    1  1.00
        0.3023000000         1.0000000000
 p    3  1.00
       17.7000000000         0.0430180000
        3.8540000000         0.2289130000
        1.0460000000         0.5087280000
 p    1  1.00
        0.2753000000         1.0000000000
 d    1  1.00
        1.1850000000         1.0000000000

  2 0
 s    3  1.00
       13.0100000000         0.0196850000
        1.9620000000         0.1379770000
        0.4446000000         0.4781480000
 s    1  1.00
        0.1220000000         1.0000000000
 p    1  1.00
        0.7270000000         1.0000000000

  3 0
 s    3  1.00
       13.0100000000         0.0196850000
        1.9620000000         0.1379770000
        0.4446000000         0.4781480000
 s    1  1.00
        0.1220000000         1.0000000000
 p    1  1.00
        0.7270000000         1.0000000000

[5D]
[9G]

[MO]
 Sym= A1
 Ene= -2.11185458498739642e+01
 Spin= Alpha
 Occup=  1.00000000000000000e+00
  1  1.00089446536473381e+00
  2  1.03561608570234848e-03
  3 -2.79732279063087640e-03
  4  0.00000000000000000e+00
  5  0.00000000000000000e+00
  6  1.78618356842484105e-03
  7  0.00000000000000000e+00
  8  0.00000000000000000e+00
  9 -4.93338022981529398e-04
 10  1.91729750750479951e-04
 11  0.00000000000000000e+00
 12  0.00000000000000000e+00
 13 -4.53841304102610031e-04
 14  0.00000000000000000e+00
 15 -2.33999761617820115e-04
 16  4.11902937719490667e-04
 17  0.00000000000000000e+00
 18  5.69264242051685976e-04
 19  4.80713236996697458e-04
 20 -2.33999761617820115e-04
 21  4.11902937719490667e-04
 22  0.00000000000000000e+00
 23 -5.69264242051685976e-04
 24  4.80713236996697458e-04
 Sym= A1
 Ene= -1.83394955532108361e+00
 Spin= Alpha
 Occup=  1.00000000000000000e+00
  1  5.92201845355119424e-03
  2  4.82923852530705189e-01
  3  3.57350494754071657e-01
  4  0.00000000000000000e+00
  5  0.00000000000000000e+00
  6  9.34123315738277921e-02
  7  0.00000000000000000e+00
  8  0.00000000000000000e+00
  9 -7.40965695619635704e-03
 10  2.68174721376450258e-03
 11  0.00000000000000000e+00
 12  0.00000000000000000e+00
 13 -4.55100283081427952e-03
 14  0.00000000000000000e+00
 15  1.88478783206251749e-01
 16 -7.21169484879815876e-03
 17  0.00000000000000000e+00
 18 -4.18717041935134371e-02
 19 -2.34997982996682474e-02
 20  1.88478783206251749e-01
 21 -7.21169484879815876e-03
 22  0.00000000000000000e+00
 23  4.18717041935134371e-02
 24 -2.34997982996682474e-02
 Sym= B2
 Ene= -1.19932975296254352e+00
 Spin= Alpha
 Occup=  1.00000000000000000e+00
  1  0.00000000000000000e+00
  2  0.00000000000000000e+00
  3  0.00000000000000000e+00
  4  0.00000000000000000e+00
  5  5.55936133520773756e-01
  6  0.00000000000000000e+00
  7  0.00000000000000000e+00
  8  2.22319085217777157e-01
  9  0.00000000000000000e+00
 10  0.00000000000000000e+00
 11  0.00000000000000000e+00
 12  2.77985030095834647e-02
 13  0.00000000000000000e+00
 14  0.00000000000000000e+00
 15  3.08978159607386560e-01
 16  1.47941295997174489e-02
 17  0.00000000000000000e+00
 18 -3.12726707383424243e-02
 19 -3.83038520518608067e-02
 20 -3.08978159607386560e-01
 21 -1.47941295997174489e-02
 22  0.00000000000000000e+00
 23 -3.12726707383424243e-02
 24  3.83038520518608067e-02
 Sym= A1
 Ene= -1.07227170646017234e+00
 Spin= Alpha
 Occup=  1.00000000000000000e+00
  1  7.05957854051341392e-03
  2  1.64490775647073900e-01
  3  3.02228202163455029e-01
  4  0.00000000000000000e+00
  5  0.00000000000000000e+00
  6 -6.11451484706872050e-01
  7  0.00000000000000000e+00
  8  0.00000000000000000e+00
  9 -3.18831484051684877e-01
 10 -2.04473258439527433e-02
 11  0.00000000000000000e+00
 12  0.00000000000000000e+00
 13  2.54007605927637596e-03
 14  0.00000000000000000e+00
 15 -1.92264305488378695e-01
 16 -1.34906413251578809e-02
 17  0.00000000000000000e+00
 18  4.02910612099906321e-02
 19 -2.92773541006710039e-03
 20 -1.92264305488378695e-01
 21 -1.34906413251578809e-02
 22  0.00000000000000000e+00
 23 -4.02910612099906321e-02
 24 -2.92773541006710039e-03
 Sym= B1
 Ene= -6.99040429521119444e-01
 Spin= Alpha
 Occup=  1.00000000000000000e+00
  1  0.00000000000000000e+00
  2  0.00000000000000000e+00
  3  0.00000000000000000e+00
  4  7.19671779736027917e-01
  5  0.00000000000000000e+00
  6  0.00000000000000000e+00
  7  4.01175277633214422e-01
  8  0.00000000000000000e+00
  9  0.00000000000000000e+00
 10  0.00000000000000000e+00
 11  2.18405351467800060e-02
 12  0.00000000000000000e+00
 13  0.00000000000000000e+00
 14  0.00000000000000000e+00
 15  0.00000000000000000e+00
 16  0.00000000000000000e+00
 17  2.47581328678762834e-02
 18  0.00000000000000000e+00
 19  0.00000000000000000e+00
 20  0.00000000000000000e+00
 21  0.00000000000000000e+00
 22  2.47581328678762834e-02
 23  0.00000000000000000e+00
 24  0.00000000000000000e+00
 Sym= A1
 Ene= -1.34929794335216097e-01
 Spin= Alpha
 Occup=  0.00000000000000000e+00
  1  2.05140261843309857e-02
  2 -1.40267550691743015e-01
  3 -8.69863683244594177e-01
  4  0.00000000000000000e+00
  5  0.00000000000000000e+00
  6 -2.07173030046669371e-01
  7  0.00000000000000000e+00
  8  0.00000000000000000e+00
  9 -2.68272937474713147e-01
 10 -5.85950156269965730e-03
 11  0.00000000000000000e+00
 12  0.00000000000000000e+00
 13 -1.87401474013216694e-03
 14  0.00000000000000000e+00
 15  1.27659164887615029e-01
 16  7.58553753319047730e-01
 17  0.00000000000000000e+00
 18  5.62489280778258067e-03
 19 -7.98321943430247826e-04
 20  1.27659164887615029e-01
 21  7.58553753319047730e-01
 22  0.00000000000000000e+00
 23 -5.62489280778258067e-03
 24 -7.98321943430247826e-04
 Sym= B2
 Ene= -5.44636744180672580e-02
 Spin= Alpha
 Occup=  0.00000000000000000e+00
  1  0.00000000000000000e+00
  2  0.00000000000000000e+00
  3  0.00000000000000000e+00
  4  0.00000000000000000e+00
  5  3.26356456506792569e-01
  6  0.00000000000000000e+00
  7  0.00000000000000000e+00
  8  5.82276372587599234e-01
  9  0.00000000000000000e+00
 10  0.00000000000000000e+00
 11  0.00000000000000000e+00
 12  7.32042110283513030e-04
 13  0.00000000000000000e+00
 14  0.00000000000000000e+00
 15 -1.56061007772937216e-01
 16 -1.28845340574321954e+00
 17  0.00000000000000000e+00
 18 -5.33602839766997915e-05
 19 -7.13258863111115773e-03
 20  1.56061007772937216e-01
 21  1.28845340574321954e+00
 22  0.00000000000000000e+00
 23 -5.33602839766997915e-05
 24  7.13258863111115773e-03
 Sym= B2
 Ene=  3.92077435801333418e-01
 Spin= Alpha
 Occup=  0.00000000000000000e+00
  1  0.00000000000000000e+00
  2  0.00000000000000000e+00
  3  0.00000000000000000e+00
  4  0.00000000000000000e+00
  5  2.47411613315084822e-01
  6  0.00000000000000000e+00
  7  0.00000000000000000e+00
  8  3.69825276835597294e-01
  9  0.00000000000000000e+00
 10  0.00000000000000000e+00
 11  0.00000000000000000e+00
 12 -1.18975741232181825e-01
 13  0.00000000000000000e+00
 14  0.00000000000000000e+00
 15 -9.46402827263825963e-01
 16  8.57712882336805205e-01
 17  0.00000000000000000e+00
 18 -5.10503833626897302e-02
 19 -1.35283016957268409e-01
 20  9.46402827263825963e-01
 21 -8.57712882336805205e-01
 22  0.00000000000000000e+00
 23 -5.10503833626897302e-02
 24  1.35283016957268409e-01
 Sym= A1
 Ene=  4.54912554733439611e-01
 Spin= Alpha
 Occup=  0.00000000000000000e+00
  1  6.36792234674219415e-02
  2  2.33444339363381909e-01
  3 -3.35947152689357043e-01
  4  0.00000000000000000e+00
  5  0.00000000000000000e+00
  6  3.44189105872844292e-01
  7  0.00000000000000000e+00
  8  0.00000000000000000e+00
  9 -7.71269093576809200e-02
 10  1.74393118732720691e-03
 11  0.00000000000000000e+00
 12  0.00000000000000000e+00
 13  1.11554192029741553e-01
 14  0.00000000000000000e+00
 15 -8.00816466331897625e-01
 16  6.12369997825018442e-01
 17  0.00000000000000000e+00
 18 -2.64052624116362933e-01
 19 -4.38486898401277483e-02
 20 -8.00816466331897625e-01
 21  6.12369997825018442e-01
 22  0.00000000000000000e+00
 23  2.64052624116362933e-01
 24 -4.38486898401277483e-02
 Sym= A1
 Ene=  7.25320946365992092e-01
 Spin= Alpha
 Occup=  0.00000000000000000e+00
  1  1.04413872577940967e-02
  2  1.27047871555160591e-01
  3  6.69838786439922562e-01
  4  0.00000000000000000e+00
  5  0.00000000000000000e+00
  6 -7.19296206183554276e-01
  7  0.00000000000000000e+00
  8  0.00000000000000000e+00
  9  1.26345269452430431e+00
 10  1.81346327363076688e-02
 11  0.00000000000000000e+00
 12  0.00000000000000000e+00
 13  2.08048160715479519e-02
 14  0.00000000000000000e+00
 15 -5.29848647775086778e-01
 16 -1.04289409423371032e-01
 17  0.00000000000000000e+00
 18  4.54291817026932013e-02
 19  2.45448377859589201e-01
 20 -5.29848647775086778e-01
 21 -1.04289409423371032e-01
 22  0.00000000000000000e+00
 23 -4.54291817026932013e-02
 24  2.45448377859589201e-01
 Sym= B1
 Ene=  7.49085190485022312e-01
 Spin= Alpha
 Occup=  0.00000000000000000e+00
  1  0.00000000000000000e+00
  2  0.00000000000000000e+00
  3  0.00000000000000000e+00
  4  9.04119323485669368e-01
  5  0.00000000000000000e+00
  6  0.00000000000000000e+00
  7 -1.05891337330267521e+00
  8  0.00000000000000000e+00
  9  0.00000000000000000e+00
 10  0.00000000000000000e+00
 11  1.39674570991100977e-04
 12  0.00000000000000000e+00
 13  0.00000000000000000e+00
 14  0.00000000000000000e+00
 15  0.00000000000000000e+00
 16  0.00000000000000000e+00
 17 -2.11996630561495820e-02
 18  0.00000000000000000e+00
 19  0.00000000000000000e+00
 20  0.00000000000000000e+00
 21  0.00000000000000000e+00
 22 -2.11996630561495820e-02
 23  0.00000000000000000e+00
 24  0.00000000000000000e+00
 Sym= B2
 Ene=  8.35667362135228964e-01
 Spin= Alpha
 Occup=  0.00000000000000000e+00
  1  0.00000000000000000e+00
  2  0.00000000000000000e+00
  3  0.00000000000000000e+00
  4  0.00000000000000000e+00
  5  7.22245859534591306e-01
  6  0.00000000000000000e+00
  7  0.00000000000000000e+00
  8 -1.78474717732656418e+00
  9  0.00000000000000000e+00
 10  0.00000000000000000e+00
 11  0.00000000000000000e+00
 12 -2.76578324828229728e-02
 13  0.00000000000000000e+00
 14  0.00000000000000000e+00
 15  3.46571506785149641e-01
 16  8.99045668582346802e-01
 17  0.00000000000000000e+00
 18 -2.75735988994731340e-01
 19 -1.53539563521186029e-01
 20 -3.46571506785149641e-01
 21 -8.99045668582346802e-01
 22  0.00000000000000000e+00
 23 -2.75735988994731340e-01
 24  1.53539563521186029e-01
 Sym= A1
 Ene=  1.03029416975848864e+00
 Spin= Alpha
 Occup=  0.00000000000000000e+00
  1  2.22954554400005833e-01
  2  5.69358771160305199e-01
  3 -5.83169512743332841e-01
  4  0.00000000000000000e+00
  5  0.00000000000000000e+00
  6 -1.31006146830622061e-01
  7  0.00000000000000000e+00
  8  0.00000000000000000e+00
  9  7.31864367215779632e-01
 10 -1.35739634301230788e-01
 11  0.00000000000000000e+00
 12  0.00000000000000000e+00
 13 -9.81527617099828970e-03
 14  0.00000000000000000e+00
 15 -3.33563463600347943e-01
 16  2.35683337838041296e-01
 17  0.00000000000000000e+00
 18  3.22243055493348696e-01
 19 -5.27756722101315967e-01
 20 -3.33563463600347943e-01
 21  2.35683337838041296e-01
 22  0.00000000000000000e+00
 23 -3.22243055493348696e-01
 24 -5.27756722101315967e-01
 Sym= A2
 Ene=  1.05533840168140092e+00
 Spin= Alpha
 Occup=  0.00000000000000000e+00
  1  0.00000000000000000e+00
  2  0.00000000000000000e+00
  3  0.00000000000000000e+00
  4  0.00000000000000000e+00
  5  0.00000000000000000e+00
  6  0.00000000000000000e+00
  7  0.00000000000000000e+00
  8  0.00000000000000000e+00
  9  0.00000000000000000e+00
 10  0.00000000000000000e+00
 11  0.00000000000000000e+00
 12  0.00000000000000000e+00
 13  0.00000000000000000e+00
 14  1.51633837658260162e-01
 15  0.00000000000000000e+00
 16  0.00000000000000000e+00
 17  6.78373306913120033e-01
 18  0.00000000000000000e+00
 19  0.00000000000000000e+00
 20  0.00000000000000000e+00
 21  0.00000000000000000e+00
 22 -6.78373306913120033e-01
 23  0.00000000000000000e+00
 24  0.00000000000000000e+00
 Sym= B1
 Ene=  1.25447103121097880e+00
 Spin= Alpha
 Occup=  0.00000000000000000e+00
  1  0.00000000000000000e+00
  2  0.00000000000000000e+00
  3  0.00000000000000000e+00
  4  4.86455427173387162e-03
  5  0.00000000000000000e+00
  6  0.00000000000000000e+00
  7  6.38326467787213914e-01
  8  0.00000000000000000e+00
  9  0.00000000000000000e+00
 10  0.00000000000000000e+00
 11 -1.83519409611700907e-01
 12  0.00000000000000000e+00
 13  0.00000000000000000e+00
 14  0.00000000000000000e+00
 15  0.00000000000000000e+00
 16  0.00000000000000000e+00
 17 -7.58098107548331290e-01
 18  0.00000000000000000e+00
 19  0.00000000000000000e+00
 20  0.00000000000000000e+00
 21  0.00000000000000000e+00
 22 -7.58098107548331290e-01
 23  0.00000000000000000e+00
 24  0.00000000000000000e+00
 Sym= A1
 Ene=  1.41135393545131671e+00
 Spin= Alpha
 Occup=  0.00000000000000000e+00
  1  7.21641217178541461e-01
  2  1.57436836454601270e+00
  3 -3.03261376878938327e+00
  4  0.00000000000000000e+00
  5  0.00000000000000000e+00
  6 -8.14898203395247878e-02
  7  0.00000000000000000e+00
  8  0.00000000000000000e+00
  9 -9.90015639875655218e-01
 10  1.28065332149627897e-01
 11  0.00000000000000000e+00
 12  0.00000000000000000e+00
 13 -1.15859253180832789e-01
 14  0.00000000000000000e+00
 15  8.11090564660190139e-01
 16  4.10097392355570356e-01
 17  0.00000000000000000e+00
 18 -3.67791781297022002e-01
 19  3.74715497296608732e-02
 20  8.11090564660190139e-01
 21  4.10097392355570356e-01
 22  0.00000000000000000e+00
 23  3.67791781297022002e-01
 24  3.74715497296608732e-02
 Sym= B2
 Ene=  1.53040810123377580e+00
 Spin= Alpha
 Occup=  0.00000000000000000e+00
  1  0.00000000000000000e+00
  2  0.00000000000000000e+00
  3  0.00000000000000000e+00
  4  0.00000000000000000e+00
  5  1.53022516433021730e-02
  6  0.00000000000000000e+00
  7  0.00000000000000000e+00
  8 -9.17404762895712933e-01
  9  0.00000000000000000e+00
 10  0.00000000000000000e+00
 11  0.00000000000000000e+00
 12  3.34032958362998622e-02
 13  0.00000000000000000e+00
 14  0.00000000000000000e+00
 15  3.90594473716664337e-01
 16  1.01122559224823674e-01
 17  0.00000000000000000e+00
 18  4.66896457910847495e-01
 19 -6.96032022078003632e-01
 20 -3.90594473716664337e-01
 21 -1.01122559224823674e-01
 22  0.00000000000000000e+00
 23  4.66896457910847495e-01
 24  6.96032022078003632e-01
 Sym= B2
 Ene=  2.00170751008553616e+00
 Spin= Alpha
 Occup=  0.00000000000000000e+00
  1  0.00000000000000000e+00
  2  0.00000000000000000e+00
  3  0.00000000000000000e+00
  4  0.00000000000000000e+00
  5  7.98211192630609578e-01
  6  0.00000000000000000e+00
  7  0.00000000000000000e+00
  8  1.61039149689864186e-01
  9  0.00000000000000000e+00
 10  0.00000000000000000e+00
 11  0.00000000000000000e+00
 12 -1.55122093218737184e-01
 13  0.00000000000000000e+00
 14  0.00000000000000000e+00
 15 -2.53773924923428151e-01
 16 -3.66756982762924566e-01
 17  0.00000000000000000e+00
 18  7.26709575335887537e-01
 19  5.53191624153458017e-01
 20  2.53773924923428151e-01
 21  3.66756982762924566e-01
 22  0.00000000000000000e+00
 23  7.26709575335887537e-01
 24 -5.53191624153458017e-01
 Sym= A1
 Ene=  2.03202109358210281e+00
 Spin= Alpha
 Occup=  0.00000000000000000e+00
  1  2.71235980265115695e-01
  2  7.04439821215572914e-01
  3  7.77617584018798880e-01
  4  0.00000000000000000e+00
  5  0.00000000000000000e+00
  6  6.36918807908803619e-01
  7  0.00000000000000000e+00
  8  0.00000000000000000e+00
  9  1.67485192584356735e-01
 10 -6.11211455352446004e-02
 11  0.00000000000000000e+00
 12  0.00000000000000000e+00
 13  2.42269105665946644e-01
 14  0.00000000000000000e+00
 15 -4.28696065898794998e-01
 16 -1.73800011412388877e-01
 17  0.00000000000000000e+00
 18  7.37531093079679012e-01
 19  5.36303724681990390e-01
 20 -4.28696065898794998e-01
 21 -1.73800011412388877e-01
 22  0.00000000000000000e+00
 23 -7.37531093079679012e-01
 24  5.36303724681990390e-01
 Sym= B1
 Ene=  2.77457328255073321e+00
 Spin= Alpha
 Occup=  0.00000000000000000e+00
  1  0.00000000000000000e+00
  2  0.00000000000000000e+00
  3  0.00000000000000000e+00
  4  1.48058432653048432e-02
  5  0.00000000000000000e+00
  6  0.00000000000000000e+00
  7 -3.24107049226112331e-01
  8  0.00000000000000000e+00
  9  0.00000000000000000e+00
 10  0.00000000000000000e+00
 11 -1.03886121288697408e+00
 12  0.00000000000000000e+00
 13  0.00000000000000000e+00
 14  0.00000000000000000e+00
 15  0.00000000000000000e+00
 16  0.00000000000000000e+00
 17  4.14733551593117589e-01
 18  0.00000000000000000e+00
 19  0.00000000000000000e+00
 20  0.00000000000000000e+00
 21  0.00000000000000000e+00
 22  4.14733551593117589e-01
 23  0.00000000000000000e+00
 24  0.00000000000000000e+00
 Sym= A2
 Ene=  2.82592664312854414e+00
 Spin= Alpha
 Occup=  0.00000000000000000e+00
  1  0.00000000000000000e+00
  2  0.00000000000000000e+00
  3  0.00000000000000000e+00
  4  0.00000000000000000e+00
  5  0.00000000000000000e+00
  6  0.00000000000000000e+00
  7  0.00000000000000000e+00
  8  0.00000000000000000e+00
  9  0.00000000000000000e+00
 10  0.00000000000000000e+00
 11  0.00000000000000000e+00
 12  0.00000000000000000e+00
 13  0.00000000000000000e+00
 14  1.06336160234306210e+00
 15  0.00000000000000000e+00
 16  0.00000000000000000e+00
 17 -3.84195802323711033e-01
 18  0.00000000000000000e+00
 19  0.00000000000000000e+00
 20  0.00000000000000000e+00
 21  0.00000000000000000e+00
 22  3.84195802323711033e-01
 23  0.00000000000000000e+00
 24  0.00000000000000000e+00
 Sym= A1
 Ene=  3.01716239746561188e+00
 Spin= Alpha
 Occup=  0.00000000000000000e+00
  1  8.80508036727491311e-02
  2  1.58859977317507284e-01
  3 -6.11730514047893137e-01
  4  0.00000000000000000e+00
  5  0.00000000000000000e+00
  6 -2.34737175532575629e-02
  7  0.00000000000000000e+00
  8  0.00000000000000000e+00
  9 -5.72187344684757515e-01
 10 -1.08196258764584807e+00
 11  0.00000000000000000e+00
 12  0.00000000000000000e+00
 13 -1.62662374037928381e-01
 14  0.00000000000000000e+00
 15  3.33820896239551079e-01
 16  4.41627652454891217e-02
 17  0.00000000000000000e+00
 18 -3.75557681779164598e-01
 19  3.16796395004536324e-01
 20  3.33820896239551079e-01
 21  4.41627652454891217e-02
 22  0.00000000000000000e+00
 23  3.75557681779164598e-01
 24  3.16796395004536324e-01
 Sym= A1
 Ene=  3.36407083031201015e+00
 Spin= Alpha
 Occup=  0.00000000000000000e+00
  1  1.44816706225125269e-01
  2  1.76592302312786525e-01
  3 -2.32802865069196763e+00
  4  0.00000000000000000e+00
  5  0.00000000000000000e+00
  6 -4.09299663652501533e-01
  7  0.00000000000000000e+00
  8  0.00000000000000000e+00
  9 -9.43385062369549443e-01
 10 -1.19256801680971830e-01
 11  0.00000000000000000e+00
 12  0.00000000000000000e+00
 13  1.15531585525784153e+00
 14  0.00000000000000000e+00
 15  1.25590864070710984e+00
 16  2.06444792234541014e-01
 17  0.00000000000000000e+00
 18 -6.39834632268358794e-01
 19 -5.14842841792913619e-01
 20  1.25590864070710984e+00
 21  2.06444792234541014e-01
 22  0.00000000000000000e+00
 23  6.39834632268358794e-01
 24 -5.14842841792913619e-01
 Sym= B2
 Ene=  3.66167732490155018e+00
 Spin= Alpha
 Occup=  0.00000000000000000e+00
  1  0.00000000000000000e+00
  2  0.00000000000000000e+00
  3  0.00000000000000000e+00
  4  0.00000000000000000e+00
  5  4.67171316800624736e-01
  6  0.00000000000000000e+00
  7  0.00000000000000000e+00
  8  1.17839414500868989e+00
  9  0.00000000000000000e+00
 10  0.00000000000000000e+00
 11  0.00000000000000000e+00
 12  1.32335810383415620e+00
 13  0.00000000000000000e+00
 14  0.00000000000000000e+00
 15 -1.09819355565658383e+00
 16 -3.08581613024135559e-01
 17  0.00000000000000000e+00
 18  6.21351442783969143e-01
 19  5.07544311905923751e-01
 20  1.09819355565658383e+00
 21  3.08581613024135559e-01
 22  0.00000000000000000e+00
 23  6.21351442783969143e-01
 24 -5.07544311905923751e-01
 Sym= A1
 Ene= -2.11185458498739642e+01
 Spin= Beta
 Occup=  1.00000000000000000e+00
  1  1.00089446536473381e+00
  2  1.03561608570234848e-03
  3 -2.79732279063087640e-03
  4  0.00000000000000000e+00
  5  0.00000000000000000e+00
  6  1.78618356842484105e-03
  7  0.00000000000000000e+00
  8  0.00000000000000000e+00
  9 -4.93338022981529398e-04
 10  1.91729750750479951e-04
 11  0.00000000000000000e+00
 12  0.00000000000000000e+00
 13 -4.53841304102610031e-04
 14  0.00000000000000000e+00
 15 -2.33999761617820115e-04
 16  4.11902937719490667e-04
 17  0.00000000000000000e+00
 18  5.69264242051685976e-04
 19  4.80713236996697458e-04
 20 -2.33999761617820115e-04
 21  4.11902937719490667e-04
 22  0.00000000000000000e+00
 23 -5.69264242051685976e-04
 24  4.80713236996697458e-04
 Sym= A1
 Ene= -1.83394955532108361e+00
 Spin= Beta
 Occup=  1.00000000000000000e+00
  1  5.92201845355119424e-03
  2  4.82923852530705189e-01
  3  3.57350494754071657e-01
  4  0.00000000000000000e+00
  5  0.00000000000000000e+00
  6  9.34123315738277921e-02
  7  0.00000000000000000e+00
  8  0.00000000000000000e+00
  9 -7.40965695619635704e-03
 10  2.68174721376450258e-03
 11  0.00000000000000000e+00
 12  0.00000000000000000e+00
 13 -4.55100283081427952e-03
 14  0.00000000000000000e+00
 15  1.88478783206251749e-01
 16 -7.21169484879815876e-03
 17  0.00000000000000000e+00
 18 -4.18717041935134371e-02
 19 -2.34997982996682474e-02
 20  1.88478783206251749e-01
 21 -7.21169484879815876e-03
 22  0.00000000000000000e+00
 23  4.18717041935134371e-02
 24 -2.34997982996682474e-02
 Sym= B2
 Ene= -1.19932975296254352e+00
 Spin= Beta
 Occup=  1.00000000000000000e+00
  1  0.00000000000000000e+00
  2  0.00000000000000000e+00
  3  0.00000000000000000e+00
  4  0.00000000000000000e+00
  5  5.55936133520773756e-01
  6  0.00000000000000000e+00
  7  0.00000000000000000e+00
  8  2.22319085217777157e-01
  9  0.00000000000000000e+00
 10  0.00000000000000000e+00
 11  0.00000000000000000e+00
 12  2.77985030095834647e-02
 13  0.00000000000000000e+00
 14  0.00000000000000000e+00
 15  3.08978159607386560e-01
 16  1.47941295997174489e-02
 17  0.00000000000000000e+00
 18 -3.12726707383424243e-02
 19 -3.83038520518608067e-02
 20 -3.08978159607386560e-01
 21 -1.47941295997174489e-02
 22  0.00000000000000000e+00
 23 -3.12726707383424243e-02
 24  3.83038520518608067e-02
 Sym= A1
 Ene= -1.07227170646017234e+00
 Spin= Beta
 Occup=  1.00000000000000000e+00
  1  7.05957854051341392e-03
  2  1.64490775647073900e-01
  3  3.02228202163455029e-01
  4  0.00000000000000000e+00
  5  0.00000000000000000e+00
  6 -6.11451484706872050e-01
  7  0.00000000000000000e+00
  8  0.00000000000000000e+00
  9 -3.18831484051684877e-01
 10 -2.04473258439527433e-02
 11  0.00000000000000000e+00
 12  0.00000000000000000e+00
 13  2.54007605927637596e-03
 14  0.00000000000000000e+00
 15 -1.92264305488378695e-01
 16 -1.34906413251578809e-02
 17  0.00000000000000000e+00
 18  4.02910612099906321e-02
 19 -2.92773541006710039e-03
 20 -1.92264305488378695e-01
 21 -1.34906413251578809e-02
 22  0.00000000000000000e+00
 23 -4.02910612099906321e-02
 24 -2.92773541006710039e-03
 Sym= B1
 Ene= -6.99040429521119444e-01
 Spin= Beta
 Occup=  0.00000000000000000e+00
  1  0.00000000000000000e+00
  2  0.00000000000000000e+00
  3  0.00000000000000000e+00
  4  7.19671779736027917e-01
  5  0.00000000000000000e+00
  6  0.00000000000000000e+00
  7  4.01175277633214422e-01
  8  0.00000000000000000e+00
  9  0.00000000000000000e+00
 10  0.00000000000000000e+00
 11  2.18405351467800060e-02
 12  0.00000000000000000e+00
 13  0.00000000000000000e+00
 14  0.00000000000000000e+00
 15  0.00000000000000000e+00
 16  0.00000000000000000e+00
 17  2.47581328678762834e-02
 18  0.00000000000000000e+00
 19  0.00000000000000000e+00
 20  0.00000000000000000e+00
 21  0.00000000000000000e+00
 22  2.47581328678762834e-02
 23  0.00000000000000000e+00
 24  0.00000000000000000e+00
 Sym= A1
 Ene= -1.34929794335216097e-01
 Spin= Beta
 Occup=  0.00000000000000000e+00
  1  2.05140261843309857e-02
  2 -1.40267550691743015e-01
  3 -8.69863683244594177e-01
  4  0.00000000000000000e+00
  5  0.00000000000000000e+00
  6 -2.07173030046669371e-01
  7  0.00000000000000000e+00
  8  0.00000000000000000e+00
  9 -2.68272937474713147e-01
 10 -5.85950156269965730e-03
 11  0.00000000000000000e+00
 12  0.00000000000000000e+00
 13 -1.87401474013216694e-03
 14  0.00000000000000000e+00
 15  1.27659164887615029e-01
 16  7.58553753319047730e-01
 17  0.00000000000000000e+00
 18  5.62489280778258067e-03
 19 -7.98321943430247826e-04
 20  1.27659164887615029e-01
 21  7.58553753319047730e-01
 22  0.00000000000000000e+00
 23 -5.62489280778258067e-03
 24 -7.98321943430247826e-04
 Sym= B2
 Ene= -5.44636744180672580e-02
 Spin= Beta
 Occup=  0.00000000000000000e+00
  1  0.00000000000000000e+00
  2  0.00000000000000000e+00
  3  0.00000000000000000e+00
  4  0.00000000000000000e+00
  5  3.26356456506792569e-01
  6  0.00000000000000000e+00
  7  0.00000000000000000e+00
  8  5.82276372587599234e-01
  9  0.00000000000000000e+00
 10  0.00000000000000000e+00
 11  0.00000000000000000e+00
 12  7.32042110283513030e-04
 13  0.00000000000000000e+00
 14  0.00000000000000000e+00
 15 -1.56061007772937216e-01
 16 -1.28845340574321954e+00
 17  0.00000000000000000e+00
 18 -5.33602839766997915e-05
 19 -7.13258863111115773e-03
 20  1.56061007772937216e-01
 21  1.28845340574321954e+00
 22  0.00000000000000000e+00
 23 -5.33602839766997915e-05
 24  7.13258863111115773e-03
 Sym= B2
 Ene=  3.92077435801333418e-01
 Spin= Beta
 Occup=  0.00000000000000000e+00
  1  0.00000000000000000e+00
  2  0.00000000000000000e+00
  3  0.00000000000000000e+00
  4  0.00000000000000000e+00
  5  2.47411613315084822e-01
  6  0.00000000000000000e+00
  7  0.00000000000000000e+00
  8  3.69825276835597294e-01
  9  0.00000000000000000e+00
 10  0.00000000000000000e+00
 11  0.00000000000000000e+00
 12 -1.18975741232181825e-01
 13  0.00000000000000000e+00
 14  0.00000000000000000e+00
 15 -9.46402827263825963e-01
 16  8.57712882336805205e-01
 17  0.00000000000000000e+00
 18 -5.10503833626897302e-02
 19 -1.35283016957268409e-01
 20  9.46402827263825963e-01
 21 -8.57712882336805205e-01
 22  0.00000000000000000e+00
 23 -5.10503833626897302e-02
 24  1.35283016957268409e-01
 Sym= A1
 Ene=  4.54912554733439611e-01
 Spin= Beta
 Occup=  0.00000000000000000e+00
  1  6.36792234674219415e-02
  2  2.33444339363381909e-01
  3 -3.35947152689357043e-01
  4  0.00000000000000000e+00
  5  0.00000000000000000e+00
  6  3.44189105872844292e-01
  7  0.00000000000000000e+00
  8  0.00000000000000000e+00
  9 -7.71269093576809200e-02
 10  1.74393118732720691e-03
 11  0.00000000000000000e+00
 12  0.00000000000000000e+00
 13  1.11554192029741553e-01
 14  0.00000000000000000e+00
 15 -8.00816466331897625e-01
 16  6.12369997825018442e-01
 17  0.00000000000000000e+00
 18 -2.64052624116362933e-01
 19 -4.38486898401277483e-02
 20 -8.00816466331897625e-01
 21  6.12369997825018442e-01
 22  0.00000000000000000e+00
 23  2.64052624116362933e-01
 24 -4.38486898401277483e-02
 Sym= A1
 Ene=  7.25320946365992092e-01
 Spin= Beta
 Occup=  0.00000000000000000e+00
  1  1.04413872577940967e-02
  2  1.27047871555160591e-01
  3  6.69838786439922562e-01
  4  0.00000000000000000e+00
  5  0.00000000000000000e+00
  6 -7.19296206183554276e-01
  7  0.00000000000000000e+00
  8  0.00000000000000000e+00
  9  1.26345269452430431e+00
 10  1.81346327363076688e-02
 11  0.00000000000000000e+00
 12  0.00000000000000000e+00
 13  2.08048160715479519e-02
 14  0.00000000000000000e+00
 15 -5.29848647775086778e-01
 16 -1.04289409423371032e-01
 17  0.00000000000000000e+00
 18  4.54291817026932013e-02
 19  2.45448377859589201e-01
 20 -5.29848647775086778e-01
 21 -1.04289409423371032e-01
 22  0.00000000000000000e+00
 23 -4.54291817026932013e-02
 24  2.45448377859589201e-01
 Sym= B1
 Ene=  7.49085190485022312e-01
 Spin= Beta
 Occup=  0.00000000000000000e+00
  1  0.00000000000000000e+00
  2  0.00000000000000000e+00
  3  0.00000000000000000e+00
  4  9.04119323485669368e-01
  5  0.00000000000000000e+00
  6  0.00000000000000000e+00
  7 -1.05891337330267521e+00
  8  0.00000000000000000e+00
  9  0.00000000000000000e+00
 10  0.00000000000000000e+00
 11  1.39674570991100977e-04
 12  0.00000000000000000e+00
 13  0.00000000000000000e+00
 14  0.00000000000000000e+00
 15  0.00000000000000000e+00
 16  0.00000000000000000e+00
 17 -2.11996630561495820e-02
 18  0.00000000000000000e+00
 19  0.00000000000000000e+00
 20  0.00000000000000000e+00
 21  0.00000000000000000e+00
 22 -2.11996630561495820e-02
 23  0.00000000000000000e+00
 24  0.00000000000000000e+00
 Sym= B2
 Ene=  8.35667362135228964e-01
 Spin= Beta
 Occup=  0.00000000000000000e+00
  1  0.00000000000000000e+00
  2  0.00000000000000000e+00
  3  0.00000000000000000e+00
  4  0.00000000000000000e+00
  5  7.22245859534591306e-01
  6  0.00000000000000000e+00
  7  0.00000000000000000e+00
  8 -1.78474717732656418e+00
  9  0.00000000000000000e+00
 10  0.00000000000000000e+00
 11  0.00000000000000000e+00
 12 -2.76578324828229728e-02
 13  0.00000000000000000e+00
 14  0.00000000000000000e+00
 15  3.46571506785149641e-01
 16  8.99045668582346802e-01
 17  0.00000000000000000e+00
 18 -2.75735988994731340e-01
 19 -1.53539563521186029e-01
 20 -3.46571506785149641e-01
 21 -8.99045668582346802e-01
 22  0.00000000000000000e+00
 23 -2.75735988994731340e-01
 24  1.53539563521186029e-01
 Sym= A1
 Ene=  1.03029416975848864e+00