[Molden Format]
[Molpro variables]
_NUMVAR=  805.0000000000000    
_AVOGAD= 0.6022136736000000E+24
_BOLTZ= 0.1380658000000000E-22
_CLIGHT=  29979245800.00000    
_EV2006= 0.3674930886769165E-01
_EV= 0.3674932534394180E-01
_ENULL= 0.8854187817000000E-11
_KJOULE= 0.3808798324128737E-03
_KJOULE/MOL= 0.3808798324128737E-03
_CM= 0.4556335267302901E-05
_CM-1= 0.4556335267302901E-05
_DEB2SI= 0.3335641000000000E-29
_AMU2AU=  1822.888390000000    
_KCAL= 0.1593601117815568E-02
_KCAL/MOL= 0.1593601117815568E-02
_KELVIN2006= 0.3166828861084835E-05
_KELVIN= 0.3166814820820034E-05
_JOULE= 0.4359748200000000E-17
_HERTZ2006= 0.1519829850815779E-15
_HERTZ= 0.1519829846011223E-15
_HZ2006= 0.1519829850815779E-15
_HZ= 0.1519829846011223E-15
_JPCAL=  4.184000000000000    
_PLANCK= 0.6626075540000000E-33
_TOA2006= 0.5291772490000000    
_TOA= 0.5291772090000000    
_TOANG2006= 0.5291772490000000    
_TOANG= 0.5291772090000000    
_TORAD= 0.1745329251994330E-01
_TOCM=  219474.6306700000    
_TODEBYE=  2.541580000000000    
_TOEV2006=  27.21139610000000    
_TOE= 0.4803242000000000E-09
_TOEV=  27.21138390000000    
_TOHERTZ2006=  6579683899900000.    
_TOHERTZ=  6579683920700000.    
_TOHZ2006=  6579683899900000.    
_TOHZ=  6579683920700000.    
_TOK2006=  315773.3000000000    
_TOK=  315774.7000000000    
_TOKCAL=  627.5096000000000    
_TOKELVIN2006=  315773.3000000000    
_TOKELVIN=  315774.7000000000    
_TOKJ=  2625.500000000000    
_TOKJOULE=  2625.500000000000    
_TOKG= 0.1660565586000000E-26
_ANG2006=  1.889725988578923    
_ANG=  1.889726131421507    
_ANGSTROM2006=  1.889725988578923    
_ANGSTROM=  1.889726131421507    
_RPAREF=  0.000000000000000    
_RPADISS=  0.000000000000000    
_IGNORE_UNDEF=  2.000000000000000    
_STRICTCHECK=  0.000000000000000    
_SEW_ONEEL=  0.000000000000000    
_CPPDONE=FALSE
_DKROLL_DONE=  0.000000000000000    
_FOCKDONE=TRUE
_GRADONE=FALSE
_HESSDONE=FALSE
_INTDONE=TRUE
_SCFDONE=TRUE
_MODUL_BLOCK=FALSE
_MODUL_CUDA=FALSE
_MODUL_SLATER=FALSE
_MODUL_MRCC=FALSE
_MODUL_NBO6=FALSE
_MODUL_NECI=TRUE
_MODUL_AIMS=TRUE
_MRCC_EXEC=
_FITC_AO_SAVED=FALSE
_FITC_MO_SAVED=FALSE
_SHARED_FS=TRUE
_LSTYP=SEWARD
_INTYP=INTS
_GEOMTYP=ZMAT
_GRADTYP=ALASKA
_DIRECT=FALSE
_DKHO= -1.000000000000000    
_SYNCM=  0.000000000000000    
_BASIS=USERDEF
_ZORIENT=  1.000000000000000    
_NELEC=  42.00000000000000    
!SPIN=  0.000000000000000    
_QSDSTEP=  0.000000000000000    
_QSDIRC=  0.000000000000000    
_PROGRAM=HF-SCF
_CPUSTEP=  3.360000000000000    
_SYSSTEP= 0.6000000000000000E-01
_WALLSTEP= 0.8200000000000000    
!DFSCF=  0.000000000000000    
!SCSGRD=  0.000000000000000    
_BASINP=  610.0000000000000    
_CPUTOT=  5.090000000000001    
_CPUSORT= 0.2800000000000000    
_SYSSORT= 0.1400000000000000    
_WALLSORT= 0.4800000004470348    
_DFTEXFAC=  1.000000000000000    
_DMX=-0.8718533513078426    
_DMY=  0.000000000000000    
_DMZ=  0.000000000000000    
_DMX_SCF=-0.8718533513078426    
_DMY_SCF=  0.000000000000000    
_DMZ_SCF=  0.000000000000000    
_EHOMO=-0.3439228265393297    
_ELUMO= 0.1154928063171499    
_ENERGY= -246.7143075579766    
_ENUC=  205.5266160318501    
_EPS1= -15.56763025066280    
_EPS2= -11.27916186763236    
_EPS3=-0.5359802397586728    
_EPS4=-0.3439228265393297    
_GRADEXFAC=  9999.000000000000    
_GRADMETHOD=  1.000000000000000    
_NMRMETHOD=  0.000000000000000    
!GRID_FREEZE= -1.000000000000000    
_ITERATIONS=  11.00000000000000    
_LASTNELEC=  42.00000000000000    
_LASTSPIN=  0.000000000000000    
_LASTSYM=  1.000000000000000    
_MPP_PROG=  0.000000000000000    
_NPROC_MPP=  1.000000000000000    
_NPROC_MPPX=  1.000000000000000    
_NPROC_SMP=  16.00000000000000    
_NUMSTEP=  0.000000000000000    
_ORBITAL=  2100.200000000000    
_PI=  3.141592653589793    
_SEIG_MIN= 0.8148194445629567E-03
_SEWPROP=TRUE
_STATUS=  1.000000000000000    
_SYSTOT= 0.3200000000000000    
_VERSION=  2012001.000000000    
_WALLTOT=  4.230000000000000    
_DATE=24-Jan-19
_LASTORB=RHF
_MACHINE=Linux-4.9.0-8-amd64/nympha18.meta.zcu.cz(x86_64) (16 PROC) 64 bit serial version
_OUTPUT=/auto/brno2/home/masiz4am/git/UKRmol-in/tests/suite/C2v_target_HF3/molpro.xml
_PGROUP=C2v
_TIME=16:17:32
_LIBMOL=/afs/ics.muni.cz/software/molpro-2012.1/molprop_2012_1_Linux_x86_64_i8/lib/
!VIBCNT=  0.000000000000000    
!RGHFCNT=  0.000000000000000    
!SURFREC=  0.000000000000000    
!POLYREC=  0.000000000000000    
!DIPREC=  0.000000000000000    
!VSCFREC=  0.000000000000000    
!VCIREC=  0.000000000000000    
!PVCIREC=  0.000000000000000    
!VMP2REC=  0.000000000000000    
!VMCSCFREC=  0.000000000000000    
!VMRCIREC=  0.000000000000000    
!VIBINFO=  0.000000000000000    
!GAREC=  0.000000000000000    
!SCFORB=  21002.00000000000    
!NEWMOL= -1.000000000000000    
!NEWSYM= -1.000000000000000    
_SLFILES=slscratch
_NGSSTO=  9.000000000000000    
_SIN=SIN
_COS=COS
_TAN=TAN
_ACOS=ACOS
_ASIN=ASIN
_ATAN=ATAN
_COSH=COSH
_SINH=SINH
_TANH=TANH
_ABS=ABS
_MOD=MOD
_ERF=ERF
_REFC=REFC
_ERFC=ERFC
_HYPOT=HYPOT
_J0=J0
_J1=J1
_JN=JN
_GAMMA=GAMMA
_LGAMMA=LGAMMA
_Y0=Y0
_Y1=Y1
_YN=YN
_EXP=EXP
_LOG=LOG
_LOG10=LOG10
_SQRT=SQRT
_INT=INT
_NINT=NINT
_MAX=MAX
_MIN=MIN
_COSMO=  0.000000000000000    
_COSMOIT=  0.000000000000000    
_COSMOES=  0.000000000000000    
_COSMOEDS=  0.000000000000000    
_COSMOEC=  0.000000000000000    
_COSMOEDCORR=  0.000000000000000    
_FEPSI=  1.000000000000000    
_SL_IsMM=  0.000000000000000    
_SL_NSYM=  4.000000000000000    
_SL_System_BitSw=  0.000000000000000    
_SL_Unique_atoms=  0.000000000000000    
_SL_GRAD=  0.000000000000000    
_SL_MAXUPD_Hess=  5.000000000000000    
_SL_N_PRINT_COD=  5.000000000000000    
_SL_PRINT_CODES=  0.000000000000000    
_SL_BasType=  0.000000000000000    
_SL_Energy_Pred=  0.000000000000000    
_SL_New_Coords=  0.000000000000000    
_SL_Total_Nuclea=  0.000000000000000    
_SL_Highest_Mltp=  0.000000000000000    
_SL_Ref_Geom=  0.000000000000000    
_SL_Symmetry_ope=  1.000000000000000    
_SL_agrad=  0.000000000000000    
_SL_GrdMax=  0.000000000000000    
_SL_GrdNorm=  0.000000000000000    
_SL_GrdRMS=  0.000000000000000    
!LATTICE= -1.000000000000000    
!NEWLATTICE=  0.000000000000000    
!LATGRAD_VAR=FALSE
!SEW_LATTICE=  1.000000000000000    
!LOCAL=  0.000000000000000    
!SAVEDOM= -1.000000000000000    
!RESTDOM= -1.000000000000000    
!SAVEDOM_HF= -1.000000000000000    
!RESTDOM_HF= -1.000000000000000    
!HESSREC=  0.000000000000000    
!FREQREC=  0.000000000000000    
!NMODREC=  0.000000000000000    
!GTASKS=  0.000000000000000    
!HTASKS=  0.000000000000000    
!THRCHG= 0.1000000000000000    
!DEBUG= -1.000000000000000    
!CFIT_CPHF=  0.000000000000000    
!RDOMAUX_CPHF=  3.000000000000000    
!THRAO_CPHF= 0.1000000000000000E-09
!THRMO_CPHF= 0.1000000000000000E-08
!THROV_CPHF= 0.1000000000000000E-11
!THRSW_CPHF= 0.1000000000000000E-09
!THRPROD_CPHF= 0.1000000000000000E-08
!THRAOPR_CPHF= 0.1000000000000000E-11
!CFIT_SCFGRD=  0.000000000000000    
!RDOMAUX_SCFGRD=  5.000000000000000    
!THRAO_SCFGRD= 0.1000000000000000E-09
!THRMO_SCFGRD= 0.1000000000000000E-08
!THROV_SCFGRD= 0.1000000000000000E-11
!THRSW_SCFGRD= 0.1000000000000000E-09
!THRPROD_SCFGRD= 0.1000000000000000E-08
!THRAOPR_SCFGRD= 0.1000000000000000E-11
!LOCFIT_SCF=  0.000000000000000    
!LOCFIT_MP2= -1.000000000000000    
_RIDOM=  0.000000000000000    
!CC2_METHOD=  0.000000000000000    
_BASIS2006=FALSE
_SVDDEL= -1.000000000000000    
_SVDDELA= -1.000000000000000    
_SVDDELP= -1.000000000000000    
_SVDDELF= -1.000000000000000    
_SVDDELS= -1.000000000000000    
_SVDDEL_ABS= -1.000000000000000    
_SVDDELA_ABS= -1.000000000000000    
_SVDDELP_ABS= -1.000000000000000    
_SVDDELF_ABS= -1.000000000000000    
_SVDDELS_ABS= -1.000000000000000    
_MAXBASIS=  0.000000000000000    
!OPT_CONICAL=  0.000000000000000    
!CLEARSP_JGRID=  0.000000000000000    
_4EXT_NDISKS=  1.000000000000000    
!ZMP=  0.000000000000000    
_MAXIT_ZMP=  500.0000000000000    
_MAXDIS_ZMP=  100.0000000000000    
_ACCU_ZMP=  14.00000000000000    
_SHIFTA_ZMP= -100.0000000000000    
!EMBEDFLAG=  1.000000000000000    
!EMBED=FALSE
!EMBED_F12=FALSE
!EMBEDNUC=  0.000000000000000    
_EMBEDENERGY=  0.000000000000000    
_KSPACETIME=  0.000000000000000    
_RSPACETIME=  0.000000000000000    
!EMBED_DFC=FALSE
!NUM_VOIDS=  0.000000000000000    
_IBODY=  0.000000000000000    
_EMBE_TOTAL=  0.000000000000000    
_EMBE_HF=  0.000000000000000    
_EMBE_CORR=  0.000000000000000    
!EDFT=  0.000000000000000    
_IFASTLATGRAD=  0.000000000000000    
_SINDEX=  0.000000000000000    
GX1=  2.696450217000000    
GY1=  0.000000000000000    
GZ1=  0.000000000000000    
GX2=  1.366649938000000    
GY2= -2.157500324000000    
GZ2=  0.000000000000000    
GX3= -1.275187193000000    
GY3= -2.266726495000000    
GZ3=  0.000000000000000    
GX4= -2.628609049000000    
GY4=  0.000000000000000    
GZ4=  0.000000000000000    
GX5=  2.474029451000000    
GY5= -3.891324050000000    
GZ5=  0.000000000000000    
GX6= -2.232900397000000    
GY6= -4.081997416000000    
GZ6=  0.000000000000000    
GX7= -4.682552381000000    
GY7=  0.000000000000000    
GZ7=  0.000000000000000    
GX8= -1.275187193000000    
GY8=  2.266726495000000    
GZ8=  0.000000000000000    
GX9=  1.366649938000000    
GY9=  2.157500324000000    
GZ9=  0.000000000000000    
GX10= -2.232900397000000    
GY10=  4.081997416000000    
GZ10=  0.000000000000000    
GX11=  2.474029451000000    
GY11=  3.891324050000000    
GZ11=  0.000000000000000    
[Atoms] Angs
N     1    7         1.4269000000        0.0000000000        0.0000000000
C     2    6         0.7231999999       -1.1416999999        0.0000000000
C     3    6        -0.6747999997       -1.1995000002        0.0000000000
C     4    6        -1.3910000001        0.0000000000        0.0000000000
H     5    1         1.3091999999       -2.0592000001        0.0000000000
H     6    1        -1.1816000001       -2.1600999997        0.0000000000
H     7    1        -2.4779000000        0.0000000000        0.0000000000
C     8    6        -0.6747999997        1.1995000002        0.0000000000
C     9    6         0.7231999999        1.1416999999        0.0000000000
H    10    1        -1.1816000001        2.1600999997        0.0000000000
H    11    1         1.3091999999        2.0592000001        0.0000000000
[GTO]
  1 0
 s    8  1.00
  0.9046000000D+04  0.6996174134D-03
  0.1357000000D+04  0.5386054630D-02
  0.3093000000D+03  0.2739102119D-01
  0.8773000000D+02  0.1031505920D+00
  0.2856000000D+02  0.2785706633D+00
  0.1021000000D+02  0.4482948495D+00
  0.3838000000D+01  0.2780859284D+00
  0.7466000000D+00  0.1543156123D-01
 s    8  1.00
  0.9046000000D+04 -0.3049900960D-03
  0.1357000000D+04 -0.2408026379D-02
  0.3093000000D+03 -0.1194444873D-01
  0.8773000000D+02 -0.4892599291D-01
  0.2856000000D+02 -0.1344727247D+00
  0.1021000000D+02 -0.3151125777D+00
  0.3838000000D+01 -0.2428578325D+00
  0.7466000000D+00  0.1094382207D+01
 s    1  1.00
  0.2248000000D+00  0.1000000000D+01
 p    3  1.00
  0.1355000000D+02  0.5890567677D-01
  0.2917000000D+01  0.3204611067D+00
  0.7973000000D+00  0.7530420618D+00
 p    1  1.00
  0.2185000000D+00  0.1000000000D+01
 d    1  1.00
  0.8170000000D+00  0.1000000000D+01
  
  2 0
 s    8  1.00
  0.6665000000D+04  0.6915839628D-03
  0.1000000000D+04  0.5325796153D-02
  0.2280000000D+03  0.2706072104D-01
  0.6471000000D+02  0.1016568461D+00
  0.2106000000D+02  0.2745748236D+00
  0.7495000000D+01  0.4482943189D+00
  0.2797000000D+01  0.2849026107D+00
  0.5215000000D+00  0.1519485921D-01
 s    8  1.00
  0.6665000000D+04 -0.2932696527D-03
  0.1000000000D+04 -0.2318035474D-02
  0.2280000000D+03 -0.1149978604D-01
  0.6471000000D+02 -0.4682672701D-01
  0.2106000000D+02 -0.1284661688D+00
  0.7495000000D+01 -0.3012662725D+00
  0.2797000000D+01 -0.2556307023D+00
  0.5215000000D+00  0.1093793361D+01
 s    1  1.00
  0.1596000000D+00  0.1000000000D+01
 p    3  1.00
  0.9439000000D+01  0.5697925159D-01
  0.2002000000D+01  0.3132072115D+00
  0.5456000000D+00  0.7603767417D+00
 p    1  1.00
  0.1517000000D+00  0.1000000000D+01
 d    1  1.00
  0.5500000000D+00  0.1000000000D+01
  
  9 0
 s    8  1.00
  0.6665000000D+04  0.6915839628D-03
  0.1000000000D+04  0.5325796153D-02
  0.2280000000D+03  0.2706072104D-01
  0.6471000000D+02  0.1016568461D+00
  0.2106000000D+02  0.2745748236D+00
  0.7495000000D+01  0.4482943189D+00
  0.2797000000D+01  0.2849026107D+00
  0.5215000000D+00  0.1519485921D-01
 s    8  1.00
  0.6665000000D+04 -0.2932696527D-03
  0.1000000000D+04 -0.2318035474D-02
  0.2280000000D+03 -0.1149978604D-01
  0.6471000000D+02 -0.4682672701D-01
  0.2106000000D+02 -0.1284661688D+00
  0.7495000000D+01 -0.3012662725D+00
  0.2797000000D+01 -0.2556307023D+00
  0.5215000000D+00  0.1093793361D+01
 s    1  1.00
  0.1596000000D+00  0.1000000000D+01
 p    3  1.00
  0.9439000000D+01  0.5697925159D-01
  0.2002000000D+01  0.3132072115D+00
  0.5456000000D+00  0.7603767417D+00
 p    1  1.00
  0.1517000000D+00  0.1000000000D+01
 d    1  1.00
  0.5500000000D+00  0.1000000000D+01
  
  3 0
 s    8  1.00
  0.6665000000D+04  0.6915839628D-03
  0.1000000000D+04  0.5325796153D-02
  0.2280000000D+03  0.2706072104D-01
  0.6471000000D+02  0.1016568461D+00
  0.2106000000D+02  0.2745748236D+00
  0.7495000000D+01  0.4482943189D+00
  0.2797000000D+01  0.2849026107D+00
  0.5215000000D+00  0.1519485921D-01
 s    8  1.00
  0.6665000000D+04 -0.2932696527D-03
  0.1000000000D+04 -0.2318035474D-02
  0.2280000000D+03 -0.1149978604D-01
  0.6471000000D+02 -0.4682672701D-01
  0.2106000000D+02 -0.1284661688D+00
  0.7495000000D+01 -0.3012662725D+00
  0.2797000000D+01 -0.2556307023D+00
  0.5215000000D+00  0.1093793361D+01
 s    1  1.00
  0.1596000000D+00  0.1000000000D+01
 p    3  1.00
  0.9439000000D+01  0.5697925159D-01
  0.2002000000D+01  0.3132072115D+00
  0.5456000000D+00  0.7603767417D+00
 p    1  1.00
  0.1517000000D+00  0.1000000000D+01
 d    1  1.00
  0.5500000000D+00  0.1000000000D+01
  
  8 0
 s    8  1.00
  0.6665000000D+04  0.6915839628D-03
  0.1000000000D+04  0.5325796153D-02
  0.2280000000D+03  0.2706072104D-01
  0.6471000000D+02  0.1016568461D+00
  0.2106000000D+02  0.2745748236D+00
  0.7495000000D+01  0.4482943189D+00
  0.2797000000D+01  0.2849026107D+00
  0.5215000000D+00  0.1519485921D-01
 s    8  1.00
  0.6665000000D+04 -0.2932696527D-03
  0.1000000000D+04 -0.2318035474D-02
  0.2280000000D+03 -0.1149978604D-01
  0.6471000000D+02 -0.4682672701D-01
  0.2106000000D+02 -0.1284661688D+00
  0.7495000000D+01 -0.3012662725D+00
  0.2797000000D+01 -0.2556307023D+00
  0.5215000000D+00  0.1093793361D+01
 s    1  1.00
  0.1596000000D+00  0.1000000000D+01
 p    3  1.00
  0.9439000000D+01  0.5697925159D-01
  0.2002000000D+01  0.3132072115D+00
  0.5456000000D+00  0.7603767417D+00
 p    1  1.00
  0.1517000000D+00  0.1000000000D+01
 d    1  1.00
  0.5500000000D+00  0.1000000000D+01
  
  4 0
 s    8  1.00
  0.6665000000D+04  0.6915839628D-03
  0.1000000000D+04  0.5325796153D-02
  0.2280000000D+03  0.2706072104D-01
  0.6471000000D+02  0.1016568461D+00
  0.2106000000D+02  0.2745748236D+00
  0.7495000000D+01  0.4482943189D+00
  0.2797000000D+01  0.2849026107D+00
  0.5215000000D+00  0.1519485921D-01
 s    8  1.00
  0.6665000000D+04 -0.2932696527D-03
  0.1000000000D+04 -0.2318035474D-02
  0.2280000000D+03 -0.1149978604D-01
  0.6471000000D+02 -0.4682672701D-01
  0.2106000000D+02 -0.1284661688D+00
  0.7495000000D+01 -0.3012662725D+00
  0.2797000000D+01 -0.2556307023D+00
  0.5215000000D+00  0.1093793361D+01
 s    1  1.00
  0.1596000000D+00  0.1000000000D+01
 p    3  1.00
  0.9439000000D+01  0.5697925159D-01
  0.2002000000D+01  0.3132072115D+00
  0.5456000000D+00  0.7603767417D+00
 p    1  1.00
  0.1517000000D+00  0.1000000000D+01
 d    1  1.00
  0.5500000000D+00  0.1000000000D+01
  
  5 0
 s    3  1.00
  0.1301000000D+02  0.3349872639D-01
  0.1962000000D+01  0.2348008012D+00
  0.4446000000D+00  0.8136829579D+00
 s    1  1.00
  0.1220000000D+00  0.1000000000D+01
 p    1  1.00
  0.7270000000D+00  0.1000000000D+01
  
 11 0
 s    3  1.00
  0.1301000000D+02  0.3349872639D-01
  0.1962000000D+01  0.2348008012D+00
  0.4446000000D+00  0.8136829579D+00
 s    1  1.00
  0.1220000000D+00  0.1000000000D+01
 p    1  1.00
  0.7270000000D+00  0.1000000000D+01
  
  6 0
 s    3  1.00
  0.1301000000D+02  0.3349872639D-01
  0.1962000000D+01  0.2348008012D+00
  0.4446000000D+00  0.8136829579D+00
 s    1  1.00
  0.1220000000D+00  0.1000000000D+01
 p    1  1.00
  0.7270000000D+00  0.1000000000D+01
  
 10 0
 s    3  1.00
  0.1301000000D+02  0.3349872639D-01
  0.1962000000D+01  0.2348008012D+00
  0.4446000000D+00  0.8136829579D+00
 s    1  1.00
  0.1220000000D+00  0.1000000000D+01
 p    1  1.00
  0.7270000000D+00  0.1000000000D+01
  
  7 0
 s    3  1.00
  0.1301000000D+02  0.3349872639D-01
  0.1962000000D+01  0.2348008012D+00
  0.4446000000D+00  0.8136829579D+00
 s    1  1.00
  0.1220000000D+00  0.1000000000D+01
 p    1  1.00
  0.7270000000D+00  0.1000000000D+01
 
 
[MO]
 Sym=      1.1
 Ene=     -15.5676
 Spin= Alpha
 Occup=    2.000000
1 1.00194802658597
2 0.003268715639838
3 -0.010348349524668
4 -0.002164732151185
5 0.0
6 0.0
7 0.003250643462130
8 0.0
9 0.0
10 0.000007125709540
11 0.000286816311516
12 -0.000293942021057
13 0.0
14 0.0
15 0.0
16 0.000137533348423
17 0.000116846126615
18 0.004486887078938
19 -0.000011394671536
20 -0.000007556114088
21 0.0
22 -0.000709396600993
23 0.002821691756005
24 0.0
25 0.000098767121300
26 -0.000216253124148
27 0.000117486002848
28 -0.000610234566840
29 0.0
30 0.0
31 0.000137533348423
32 0.000116846126615
33 0.004486887078938
34 -0.000011394671536
35 0.000007556114088
36 0.0
37 -0.000709396600993
38 -0.002821691756005
39 0.0
40 0.000098767121300
41 -0.000216253124148
42 0.000117486002848
43 0.000610234566840
44 0.0
45 0.0
46 0.000116897211486
47 0.000181165967594
48 -0.004008066141136
49 -0.000089850566702
50 -0.000028466667622
51 0.0
52 -0.000871642586212
53 -0.002825016559857
54 0.0
55 -0.000028433833517
56 0.000003159023758
57 0.000025274809759
58 -0.000231779266341
59 0.0
60 0.0
61 0.000116897211486
62 0.000181165967594
63 -0.004008066141136
64 -0.000089850566702
65 0.000028466667622
66 0.0
67 -0.000871642586212
68 0.002825016559857
69 0.0
70 -0.000028433833517
71 0.000003159023758
72 0.000025274809759
73 0.000231779266341
74 0.0
75 0.0
76 -0.000213243905941
77 -0.000374078631945
78 0.004998991426281
79 -0.000059074310858
80 0.0
81 0.0
82 0.002358673475894
83 0.0
84 0.0
85 0.000146532366942
86 -0.000046851093636
87 -0.000099681273306
88 0.0
89 0.0
90 0.0
91 -0.000127519799585
92 0.000610887127376
93 -0.000047716466127
94 -0.000231246630185
95 0.0
96 -0.000127519799585
97 0.000610887127376
98 -0.000047716466127
99 0.000231246630185
100 0.0
101 -0.000085999561806
102 -0.000771401037107
103 -0.000017746494226
104 0.000118250362184
105 0.0
106 -0.000085999561806
107 -0.000771401037107
108 -0.000017746494226
109 -0.000118250362184
110 0.0
111 -0.000074544349077
112 0.000539990082644
113 -0.000095382906458
114 0.0
115 0.0
 Sym=      1.2
 Ene=     -11.2792
 Spin= Alpha
 Occup=    2.000000
1 0.0
2 0.0
3 0.0
4 0.0
5 -0.000250036344096
6 0.0
7 0.0
8 0.002392252537481
9 0.0
10 0.0
11 0.0
12 0.0
13 -0.000165004337543
14 0.0
15 0.0
16 0.70850397406708
17 0.003067202361424
18 -0.005691016126586
19 0.000169458596690
20 0.000268512616787
21 0.0
22 0.003164436640019
23 0.000369655999696
24 0.0
25 0.000287892754095
26 0.000156168536531
27 -0.000444061290626
28 0.000071704999186
29 0.0
30 0.0
31 -0.70850397406708
32 -0.003067202361424
33 0.005691016126586
34 -0.000169458596690
35 0.000268512616787
36 0.0
37 -0.003164436640019
38 0.000369655999696
39 0.0
40 -0.000287892754095
41 -0.000156168536531
42 0.000444061290626
43 0.000071704999186
44 0.0
45 0.0
46 0.012905495775620
47 -0.000148024432030
48 0.001809820766431
49 -0.000047483591987
50 0.000041682002262
51 0.0
52 0.002808811612905
53 -0.000856141671869
54 0.0
55 -0.000141903521281
56 -0.000104348359302
57 0.000246251880582
58 0.000006107685985
59 0.0
60 0.0
61 -0.012905495775620
62 0.000148024432030
63 -0.001809820766431
64 0.000047483591987
65 0.000041682002262
66 0.0
67 -0.002808811612905
68 -0.000856141671869
69 0.0
70 0.000141903521281
71 0.000104348359302
72 -0.000246251880582
73 0.000006107685985
74 0.0
75 0.0
76 0.0
77 0.0
78 0.0
79 0.0
80 -0.000017867303158
81 0.0
82 0.0
83 -0.002294462553082
84 0.0
85 0.0
86 0.0
87 0.0
88 -0.000112408665944
89 0.0
90 0.0
91 -0.000338971514609
92 0.000262834996002
93 0.000018107361920
94 -0.000352374186885
95 0.0
96 0.000338971514609
97 -0.000262834996002
98 -0.000018107361920
99 -0.000352374186885
100 0.0
101 0.000030545608251
102 0.000205746932348
103 -0.000021809981452
104 0.000115609938276
105 0.0
106 -0.000030545608251
107 -0.000205746932348
108 0.000021809981452
109 0.000115609938276
110 0.0
111 0.0
112 0.0
113 0.0
114 0.000055371544953
115 0.0
 Sym=      2.1
 Ene=     -11.2791
 Spin= Alpha
 Occup=    2.000000
1 0.000150824788746
2 0.000997242326550
3 -0.004951060156794
4 -0.000063645354861
5 0.0
6 0.0
7 0.002136229476083
8 0.0
9 0.0
10 -0.000099256289368
11 -0.000413929471210
12 0.000513185760578
13 0.0
14 0.0
15 0.0
16 0.70828908329115
17 0.002727921962030
18 -0.000765734266836
19 0.000223670635810
20 0.000344111135722
21 0.0
22 -0.000677543561400
23 0.002556672219667
24 0.0
25 0.000267918668720
26 0.000438912356342
27 -0.000706831025062
28 0.000128037501897
29 0.0
30 0.0
31 0.70828908329115
32 0.002727921962030
33 -0.000765734266836
34 0.000223670635810
35 -0.000344111135722
36 0.0
37 -0.000677543561400
38 -0.002556672219667
39 0.0
40 0.000267918668720
41 0.000438912356342
42 -0.000706831025062
43 -0.000128037501897
44 0.0
45 0.0
46 0.012665644537420
47 0.000164117709746
48 -0.003844069614446
49 -0.000065242629558
50 0.000017019699417
51 0.0
52 -0.000466343338939
53 -0.003028284514878
54 0.0
55 -0.000235705232895
56 -0.000141527200794
57 0.000377232433690
58 0.000016018959020
59 0.0
60 0.0
61 0.012665644537420
62 0.000164117709746
63 -0.003844069614446
64 -0.000065242629558
65 -0.000017019699417
66 0.0
67 -0.000466343338939
68 0.003028284514878
69 0.0
70 -0.000235705232895
71 -0.000141527200794
72 0.000377232433690
73 -0.000016018959020
74 0.0
75 0.0
76 0.000526791844598
77 -0.000325874774343
78 0.006127149525041
79 0.000048397927939
80 0.0
81 0.0
82 0.003012219527232
83 0.0
84 0.0
85 0.000155971318860
86 0.000114459009257
87 -0.000270430328117
88 0.0
89 0.0
90 0.0
91 -0.000126607215845
92 0.001489780087334
93 0.000171885120874
94 -0.000387082139477
95 0.0
96 -0.000126607215845
97 0.001489780087334
98 0.000171885120874
99 0.000387082139477
100 0.0
101 -0.000066049364396
102 -0.000679197445768
103 0.000081127768776
104 0.000150216170541
105 0.0
106 -0.000066049364396
107 -0.000679197445768
108 0.000081127768776
109 -0.000150216170541
110 0.0
111 -0.000059716409032
112 0.000762326159914
113 -0.000111511844622
114 0.0
115 0.0
 Sym=      3.1
 Ene=     -11.2653
 Spin= Alpha
 Occup=    2.000000
1 0.000001336567161
2 -0.000011348949737
3 -0.000052091944262
4 0.000011914884749
5 0.0
6 0.0
7 0.000164273926572
8 0.0
9 0.0
10 -0.000022809685159
11 0.000017619810876
12 0.000005189874283
13 0.0
14 0.0
15 0.0
16 -0.001176657102040
17 -0.000107490962317
18 0.000465938426542
19 0.000016561958707
20 0.000001189856166
21 0.0
22 -0.000391346831921
23 0.000007939302175
24 0.0
25 0.000068177899422
26 0.000035888096416
27 -0.000104065995838
28 -0.000073656944184
29 0.0
30 0.0
31 -0.001176657102040
32 -0.000107490962317
33 0.000465938426542
34 0.000016561958707
35 -0.000001189856166
36 0.0
37 -0.000391346831921
38 -0.000007939302175
39 0.0
40 0.000068177899422
41 0.000035888096416
42 -0.000104065995838
43 0.000073656944184
44 0.0
45 0.0
46 0.032265540880858
47 -0.000157530810566
48 0.001758818914088
49 0.000014505735434
50 -0.000049919152050
51 0.0
52 -0.000516596196627
53 0.001334666824628
54 0.0
55 -0.000084459125876
56 -0.000246374034663
57 0.000330833160539
58 0.000014167322461
59 0.0
60 0.0
61 0.032265540880858
62 -0.000157530810566
63 0.001758818914088
64 0.000014505735434
65 0.000049919152050
66 0.0
67 -0.000516596196627
68 -0.001334666824628
69 0.0
70 -0.000084459125876
71 -0.000246374034663
72 0.000330833160539
73 -0.000014167322461
74 0.0
75 0.0
76 1.00102858063855
77 0.004298173723566
78 -0.009275657206941
79 -0.000090310609583
80 0.0
81 0.0
82 -0.001577264837944
83 0.0
84 0.0
85 0.000495142917808
86 0.000126773811490
87 -0.000621916729298
88 0.0
89 0.0
90 0.0
91 -0.000052103712498
92 0.000135091942034
93 0.000007144527931
94 -0.000025172963597
95 0.0
96 -0.000052103712498
97 0.000135091942034
98 0.000007144527931
99 0.000025172963597
100 0.0
101 0.000138844179305
102 0.000355094612889
103 0.000075948532774
104 0.000108866606388
105 0.0
106 0.000138844179305
107 0.000355094612889
108 0.000075948532774
109 -0.000108866606388
110 0.0
111 -0.000526766093526
112 0.000837990994688
113 -0.000574380109071
114 0.0
115 0.0
 Sym=      2.2
 Ene=     -11.2474
 Spin= Alpha
 Occup=    2.000000
1 0.0
2 0.0
3 0.0
4 0.0
5 -0.000012149356314
6 0.0
7 0.0
8 0.000079855307327
9 0.0
10 0.0
11 0.0
12 0.0
13 0.000031073618244
14 0.0
15 0.0
16 -0.013287031190800
17 -0.000201178281527
18 0.001627933845215
19 0.000021583621645
20 0.000032557116096
21 0.0
22 -0.000677224321067
23 0.000535805411071
24 0.0
25 -0.000185788368924
26 -0.000077192427148
27 0.000262980796072
28 0.000041921605025
29 0.0
30 0.0
31 0.013287031190800
32 0.000201178281527
33 -0.001627933845215
34 -0.000021583621645
35 0.000032557116096
36 0.0
37 0.000677224321067
38 0.000535805411071
39 0.0
40 0.000185788368924
41 0.000077192427148
42 -0.000262980796072
43 0.000041921605025
44 0.0
45 0.0
46 0.70855059560712
47 0.003234377179072
48 -0.006832864659523
49 -0.000033533913350
50 0.000003745822959
51 0.0
52 -0.000109342370950
53 -0.001416380108922
54 0.0
55 0.000142148864710
56 0.000206971518531
57 -0.000349120383241
58 0.000094663570129
59 0.0
60 0.0
61 -0.70855059560712
62 -0.003234377179072
63 0.006832864659523
64 0.000033533913350
65 0.000003745822959
66 0.0
67 0.000109342370950
68 -0.001416380108922
69 0.0
70 -0.000142148864710
71 -0.000206971518531
72 0.000349120383241
73 0.000094663570129
74 0.0
75 0.0
76 0.0
77 0.0
78 0.0
79 0.0
80 0.000083115706140
81 0.0
82 0.0
83 -0.001801021259798
84 0.0
85 0.0
86 0.0
87 0.0
88 0.000162278532543
89 0.0
90 0.0
91 0.000111920269476
92 0.000228573926346
93 -0.000063403932990
94 0.000080700251455
95 0.0
96 -0.000111920269476
97 -0.000228573926346
98 0.000063403932990
99 0.000080700251455
100 0.0
101 -0.000346413696774
102 0.000499197368690
103 -0.000195466246185
104 -0.000336042948915
105 0.0
106 0.000346413696774
107 -0.000499197368690
108 0.000195466246185
109 -0.000336042948915
110 0.0
111 0.0
112 0.0
113 0.0
114 0.000039611024804
115 0.0
 Sym=      4.1
 Ene=     -11.2474
 Spin= Alpha
 Occup=    2.000000
1 0.000095873755043
2 0.000153154416040
3 -0.001298543176290
4 -0.000013150789182
5 0.0
6 0.0
7 0.000669356338571
8 0.0
9 0.0
10 0.000042456987773
11 0.000018018989378
12 -0.000060475977151
13 0.0
14 0.0
15 0.0
16 -0.012870989104813
17 -0.000299841940905
18 0.003254398276380
19 0.000066332995109
20 0.000033445319434
21 0.0
22 -0.001532012688232
23 0.000853741612150
24 0.0
25 -0.000149264523424
26 -0.000010070964021
27 0.000159335487445
28 0.000038495145399
29 0.0
30 0.0
31 -0.012870989104813
32 -0.000299841940905
33 0.003254398276380
34 0.000066332995109
35 -0.000033445319434
36 0.0
37 -0.001532012688232
38 -0.000853741612150
39 0.0
40 -0.000149264523424
41 -0.000010070964021
42 0.000159335487445
43 -0.000038495145399
44 0.0
45 0.0
46 0.70780856685413
47 0.003226260743296
48 -0.008267881182735
49 -0.000039681194147
50 -0.000012786531848
51 0.0
52 -0.001256653262554
53 -0.001738306843052
54 0.0
55 0.000098926310936
56 0.000366736619971
57 -0.000465662930907
58 0.000101422654079
59 0.0
60 0.0
61 0.70780856685413
62 0.003226260743296
63 -0.008267881182735
64 -0.000039681194147
65 0.000012786531848
66 0.0
67 -0.001256653262554
68 0.001738306843052
69 0.0
70 0.000098926310936
71 0.000366736619971
72 -0.000465662930907
73 -0.000101422654079
74 0.0
75 0.0
76 -0.046520552572900
77 -0.000692366500474
78 0.004846531497940
79 -0.000052037885084
80 0.0
81 0.0
82 0.002333697971345
83 0.0
84 0.0
85 -0.000299262459097
86 -0.000212779583776
87 0.000512042042873
88 0.0
89 0.0
90 0.0
91 0.000072854726517
92 0.000413474671256
93 -0.000013786315833
94 0.000067955221708
95 0.0
96 0.000072854726517
97 0.000413474671256
98 -0.000013786315833
99 -0.000067955221708
100 0.0
101 -0.000429444909132
102 0.000381393660849
103 -0.000191602102158
104 -0.000357655254546
105 0.0
106 -0.000429444909132
107 0.000381393660849
108 -0.000191602102158
109 0.000357655254546
110 0.0
111 0.000252597909267
112 0.000617705838964
113 0.000211378187718
114 0.0
115 0.0
 Sym=      5.1
 Ene=      -1.2541
 Spin= Alpha
 Occup=    2.000000
1 -0.015632954932083
2 0.31622325574921
3 0.30863369884183
4 -0.10531557652609
5 0.0
6 0.0
7 -0.047985946793130
8 0.0
9 0.0
10 0.003551167063335
11 0.009600285357796
12 -0.013151452421131
13 0.0
14 0.0
15 0.0
16 -0.011875629555452
17 0.18959536036971
18 0.055057197015683
19 0.022262149088963
20 0.10224386215743
21 0.0
22 0.003466332892219
23 -0.005809616723668
24 0.0
25 -0.002731246808102
26 0.013822617296826
27 -0.011091370488724
28 0.015861992266055
29 0.0
30 0.0
31 -0.011875629555452
32 0.18959536036971
33 0.055057197015683
34 0.022262149088963
35 -0.10224386215743
36 0.0
37 0.003466332892219
38 0.005809616723668
39 0.0
40 -0.002731246808102
41 0.013822617296826
42 -0.011091370488724
43 -0.015861992266055
44 0.0
45 0.0
46 -0.006858499859929
47 0.089822373454547
48 0.081848597966402
49 0.035852525571882
50 0.030178744790856
51 0.0
52 0.015035471036469
53 0.031871928420662
54 0.0
55 0.007776980928169
56 -0.001773375151882
57 -0.006003605776287
58 0.001651380999827
59 0.0
60 0.0
61 -0.006858499859929
62 0.089822373454547
63 0.081848597966402
64 0.035852525571882
65 -0.030178744790856
66 0.0
67 0.015035471036469
68 -0.031871928420662
69 0.0
70 0.007776980928169
71 -0.001773375151882
72 -0.006003605776287