[Molden Format]
[Molpro variables]
_NUMVAR=  814.0000000000000    
_AVOGAD= 0.6022136736000000E+24
_BOLTZ= 0.1380658000000000E-22
_CLIGHT=  29979245800.00000    
_EV2006= 0.3674930886769165E-01
_EV= 0.3674932534394180E-01
_ENULL= 0.8854187817000000E-11
_KJOULE= 0.3808798324128737E-03
_KJOULE/MOL= 0.3808798324128737E-03
_CM= 0.4556335267302901E-05
_CM-1= 0.4556335267302901E-05
_DEB2SI= 0.3335641000000000E-29
_AMU2AU=  1822.888390000000    
_KCAL= 0.1593601117815568E-02
_KCAL/MOL= 0.1593601117815568E-02
_KELVIN2006= 0.3166828861084835E-05
_KELVIN= 0.3166814820820034E-05
_JOULE= 0.4359748200000000E-17
_HERTZ2006= 0.1519829850815779E-15
_HERTZ= 0.1519829846011223E-15
_HZ2006= 0.1519829850815779E-15
_HZ= 0.1519829846011223E-15
_JPCAL=  4.184000000000000    
_PLANCK= 0.6626075540000000E-33
_TOA2006= 0.5291772490000000    
_TOA= 0.5291772090000000    
_TOANG2006= 0.5291772490000000    
_TOANG= 0.5291772090000000    
_TORAD= 0.1745329251994330E-01
_TOCM=  219474.6306700000    
_TODEBYE=  2.541580000000000    
_TOEV2006=  27.21139610000000    
_TOE= 0.4803242000000000E-09
_TOEV=  27.21138390000000    
_TOHERTZ2006=  6579683899900000.    
_TOHERTZ=  6579683920700000.    
_TOHZ2006=  6579683899900000.    
_TOHZ=  6579683920700000.    
_TOK2006=  315773.3000000000    
_TOK=  315774.7000000000    
_TOKCAL=  627.5096000000000    
_TOKELVIN2006=  315773.3000000000    
_TOKELVIN=  315774.7000000000    
_TOKJ=  2625.500000000000    
_TOKJOULE=  2625.500000000000    
_TOKG= 0.1660565586000000E-26
_ANG2006=  1.889725988578923    
_ANG=  1.889726131421507    
_ANGSTROM2006=  1.889725988578923    
_ANGSTROM=  1.889726131421507    
_RPAREF=  0.000000000000000    
_RPADISS=  0.000000000000000    
_IGNORE_UNDEF=  2.000000000000000    
_STRICTCHECK=  0.000000000000000    
_SEW_ONEEL=  0.000000000000000    
_CPPDONE=FALSE
_DKROLL_DONE=  0.000000000000000    
_FOCKDONE=TRUE
_GRADONE=FALSE
_HESSDONE=FALSE
_INTDONE=TRUE
_SCFDONE=TRUE
_MODUL_BLOCK=FALSE
_MODUL_CUDA=FALSE
_MODUL_SLATER=FALSE
_MODUL_MRCC=FALSE
_MODUL_NBO6=FALSE
_MODUL_NECI=TRUE
_MODUL_AIMS=TRUE
_MRCC_EXEC=
_FITC_AO_SAVED=FALSE
_FITC_MO_SAVED=FALSE
_SHARED_FS=TRUE
_LSTYP=SEWARD
_INTYP=INTS
_GEOMTYP=ZMAT
_GRADTYP=ALASKA
_DIRECT=FALSE
_DKHO= -1.000000000000000    
_SYNCM=  0.000000000000000    
_BASIS=USERDEF
_ZORIENT=  1.000000000000000    
_NELEC=  42.00000000000000    
!SPIN=  0.000000000000000    
_QSDSTEP=  0.000000000000000    
_QSDIRC=  0.000000000000000    
_PROGRAM=MATROP
_CPUSTEP= 0.2000000000000135E-01
_SYSSTEP=  0.000000000000000    
_WALLSTEP= 0.1900000000000000    
!DFSCF=  0.000000000000000    
!SCSGRD=  0.000000000000000    
_BASINP=  610.0000000000000    
_CPUTOT=  11.18000000000000    
_DFTEXFAC=  1.000000000000000    
_DMX=  0.000000000000000    
_DMY=  0.000000000000000    
_DMZ=  0.000000000000000    
_DMX_SCF=  0.000000000000000    
_DMY_SCF=  0.000000000000000    
_DMZ_SCF=  0.000000000000000    
_EHOMO=-0.3326993314474254    
_ELUMO= 0.1358173768995472    
_ENUC=  202.7384749397557    
_EPS1= -11.25513954923958    
_EPS2= -11.25499089748689    
_EPS3= -11.25417969197803    
_EPS4= -11.25306356151122    
_EPS5=-0.4728173539823172    
_EPS6=-0.2947338616717868    
_EPS7=-0.2911986124912395    
_EPS8= 0.6846775802180825E-01
_GRADEXFAC=  9999.000000000000    
_GRADMETHOD=TRUE
_NMRMETHOD=  0.000000000000000    
!GRID_FREEZE= -1.000000000000000    
_ITERATIONS=  0.000000000000000    
_LASTNELEC=  10.00000000000000    
_LASTSPIN=  2.000000000000000    
_LASTSYM=  1.000000000000000    
_MPP_PROG=  0.000000000000000    
_NPROC_MPP=  1.000000000000000    
_NPROC_MPPX=  1.000000000000000    
_NPROC_SMP=  16.00000000000000    
_NUMSTEP=  0.000000000000000    
_ORBITAL=  2141.200000000000    
_PI=  3.141592653589793    
_SEIG_MIN= 0.3750168419060033E-03
_SEWPROP=TRUE
_STATUS=  0.000000000000000    
_SYSTOT=  5.140000000000001    
_VERSION=  2012001.000000000    
_WALLTOT=  73.84000000000000    
_DATE=24-Jan-19
_LASTORB=MCSCF
_MACHINE=Linux-4.9.0-8-amd64/nympha18.meta.zcu.cz(x86_64) (16 PROC) 64 bit serial version
_OUTPUT=/auto/brno2/home/masiz4am/git/UKRmol-in/tests/suite/D2h_target_CAS3/molpro.xml
_PGROUP=D2h
_TIME=16:39:16
_LIBMOL=/afs/ics.muni.cz/software/molpro-2012.1/molprop_2012_1_Linux_x86_64_i8/lib/
!VIBCNT=  0.000000000000000    
!RGHFCNT=  0.000000000000000    
!SURFREC=  0.000000000000000    
!POLYREC=  0.000000000000000    
!DIPREC=  0.000000000000000    
!VSCFREC=  0.000000000000000    
!VCIREC=  0.000000000000000    
!PVCIREC=  0.000000000000000    
!VMP2REC=  0.000000000000000    
!VMCSCFREC=  0.000000000000000    
!VMRCIREC=  0.000000000000000    
!VIBINFO=  0.000000000000000    
!GAREC=  0.000000000000000    
!SCFORB=  21002.00000000000    
!MCORB=  21412.00000000000    
!NEWMOL= -1.000000000000000    
!NEWSYM= -1.000000000000000    
_SLFILES=slscratch
_NGSSTO=  9.000000000000000    
_SIN=SIN
_COS=COS
_TAN=TAN
_ACOS=ACOS
_ASIN=ASIN
_ATAN=ATAN
_COSH=COSH
_SINH=SINH
_TANH=TANH
_ABS=ABS
_MOD=MOD
_ERF=ERF
_REFC=REFC
_ERFC=ERFC
_HYPOT=HYPOT
_J0=J0
_J1=J1
_JN=JN
_GAMMA=GAMMA
_LGAMMA=LGAMMA
_Y0=Y0
_Y1=Y1
_YN=YN
_EXP=EXP
_LOG=LOG
_LOG10=LOG10
_SQRT=SQRT
_INT=INT
_NINT=NINT
_MAX=MAX
_MIN=MIN
_COSMO=  0.000000000000000    
_COSMOIT=  0.000000000000000    
_COSMOES=  0.000000000000000    
_COSMOEDS=  0.000000000000000    
_COSMOEC=  0.000000000000000    
_COSMOEDCORR=  0.000000000000000    
_FEPSI=  1.000000000000000    
_SL_IsMM=  0.000000000000000    
_SL_NSYM=  8.000000000000000    
_SL_System_BitSw=  0.000000000000000    
_SL_Unique_atoms=  0.000000000000000    
_SL_GRAD=  0.000000000000000    
_SL_MAXUPD_Hess=  5.000000000000000    
_SL_N_PRINT_COD=  5.000000000000000    
_SL_PRINT_CODES=  0.000000000000000    
_SL_BasType=  0.000000000000000    
_SL_Energy_Pred=  0.000000000000000    
_SL_New_Coords=  0.000000000000000    
_SL_Total_Nuclea=  0.000000000000000    
_SL_Highest_Mltp=  0.000000000000000    
_SL_Ref_Geom=  0.000000000000000    
_SL_Symmetry_ope=  1.000000000000000    
_SL_agrad=  0.000000000000000    
_SL_GrdMax=  0.000000000000000    
_SL_GrdNorm=  0.000000000000000    
_SL_GrdRMS=  0.000000000000000    
!LATTICE= -1.000000000000000    
!NEWLATTICE=  0.000000000000000    
!LATGRAD_VAR=FALSE
!SEW_LATTICE=  1.000000000000000    
!LOCAL=  0.000000000000000    
!SAVEDOM= -1.000000000000000    
!RESTDOM= -1.000000000000000    
!SAVEDOM_HF= -1.000000000000000    
!RESTDOM_HF= -1.000000000000000    
!HESSREC=  0.000000000000000    
!FREQREC=  0.000000000000000    
!NMODREC=  0.000000000000000    
!GTASKS=  0.000000000000000    
!HTASKS=  0.000000000000000    
!THRCHG= 0.1000000000000000    
!DEBUG= -1.000000000000000    
!CFIT_CPHF=  0.000000000000000    
!RDOMAUX_CPHF=  3.000000000000000    
!THRAO_CPHF= 0.1000000000000000E-09
!THRMO_CPHF= 0.1000000000000000E-08
!THROV_CPHF= 0.1000000000000000E-11
!THRSW_CPHF= 0.1000000000000000E-09
!THRPROD_CPHF= 0.1000000000000000E-08
!THRAOPR_CPHF= 0.1000000000000000E-11
!CFIT_SCFGRD=  0.000000000000000    
!RDOMAUX_SCFGRD=  5.000000000000000    
!THRAO_SCFGRD= 0.1000000000000000E-09
!THRMO_SCFGRD= 0.1000000000000000E-08
!THROV_SCFGRD= 0.1000000000000000E-11
!THRSW_SCFGRD= 0.1000000000000000E-09
!THRPROD_SCFGRD= 0.1000000000000000E-08
!THRAOPR_SCFGRD= 0.1000000000000000E-11
!LOCFIT_SCF=  0.000000000000000    
!LOCFIT_MP2= -1.000000000000000    
_RIDOM=  0.000000000000000    
!CC2_METHOD=  0.000000000000000    
_BASIS2006=FALSE
_SVDDEL= -1.000000000000000    
_SVDDELA= -1.000000000000000    
_SVDDELP= -1.000000000000000    
_SVDDELF= -1.000000000000000    
_SVDDELS= -1.000000000000000    
_SVDDEL_ABS= -1.000000000000000    
_SVDDELA_ABS= -1.000000000000000    
_SVDDELP_ABS= -1.000000000000000    
_SVDDELF_ABS= -1.000000000000000    
_SVDDELS_ABS= -1.000000000000000    
_MAXBASIS=  0.000000000000000    
!OPT_CONICAL=  0.000000000000000    
!CLEARSP_JGRID=  0.000000000000000    
_4EXT_NDISKS=  1.000000000000000    
!ZMP=  0.000000000000000    
_MAXIT_ZMP=  500.0000000000000    
_MAXDIS_ZMP=  100.0000000000000    
_ACCU_ZMP=  14.00000000000000    
_SHIFTA_ZMP= -100.0000000000000    
!EMBEDFLAG=  1.000000000000000    
!EMBED=FALSE
!EMBED_F12=FALSE
!EMBEDNUC=  0.000000000000000    
_EMBEDENERGY=  0.000000000000000    
_KSPACETIME=  0.000000000000000    
_RSPACETIME=  0.000000000000000    
!EMBED_DFC=FALSE
!NUM_VOIDS=  0.000000000000000    
_IBODY=  0.000000000000000    
_EMBE_TOTAL=  0.000000000000000    
_EMBE_HF=  0.000000000000000    
_EMBE_CORR=  0.000000000000000    
!EDFT=  0.000000000000000    
_IFASTLATGRAD=  0.000000000000000    
_SINDEX=  0.000000000000000    
M_NAME=CASSCF(10,8)
M_CLOSED=  5.000000000000000    
M_OCC=  7.000000000000000    
GX1=  2.645994329000000    
GY1=  0.000000000000000    
GZ1=  0.000000000000000    
GX2=  1.322997165000000    
GY2= -2.291481734000000    
GZ2=  0.000000000000000    
GX3=  4.700693397000000    
GY3=  0.000000000000000    
GZ3=  0.000000000000000    
GX4=  2.350252212000000    
GY4= -4.070847725000000    
GZ4=  0.000000000000000    
GX5= -1.322997165000000    
GY5= -2.291481734000000    
GZ5=  0.000000000000000    
GX6= -2.645994329000000    
GY6=  0.000000000000000    
GZ6=  0.000000000000000    
GX7= -2.350252212000000    
GY7= -4.070847725000000    
GZ7=  0.000000000000000    
GX8= -4.700693397000000    
GY8=  0.000000000000000    
GZ8=  0.000000000000000    
GX9= -1.322997165000000    
GY9=  2.291481734000000    
GZ9=  0.000000000000000    
GX10=  1.322997165000000    
GY10=  2.291481734000000    
GZ10=  0.000000000000000    
GX11= -2.350252212000000    
GY11=  4.070847725000000    
GZ11=  0.000000000000000    
GX12=  2.350252212000000    
GY12=  4.070847725000000    
GZ12=  0.000000000000000    
_TRDMX=  0.000000000000000    
_TRDMY=  0.000000000000000    
_TRDMZ=  0.000000000000000    
[Atoms] Angs
C     1    6         1.4001998941        0.0000000000        0.0000000000
C     2    6         0.7000999473       -1.2125999085        0.0000000000
H     3    1         2.4874998122        0.0000000000        0.0000000000
H     4    1         1.2436999060       -2.1541998374        0.0000000000
C     5    6        -0.7000999473       -1.2125999085        0.0000000000
C     6    6        -1.4001998941        0.0000000000        0.0000000000
H     7    1        -1.2436999060       -2.1541998374        0.0000000000
H     8    1        -2.4874998122        0.0000000000        0.0000000000
C     9    6        -0.7000999473        1.2125999085        0.0000000000
C    10    6         0.7000999473        1.2125999085        0.0000000000
H    11    1        -1.2436999060        2.1541998374        0.0000000000
H    12    1         1.2436999060        2.1541998374        0.0000000000
[GTO]
  1 0
 s    8  1.00
  0.6665000000D+04  0.6915839628D-03
  0.1000000000D+04  0.5325796153D-02
  0.2280000000D+03  0.2706072104D-01
  0.6471000000D+02  0.1016568461D+00
  0.2106000000D+02  0.2745748236D+00
  0.7495000000D+01  0.4482943189D+00
  0.2797000000D+01  0.2849026107D+00
  0.5215000000D+00  0.1519485921D-01
 s    8  1.00
  0.6665000000D+04 -0.2932696527D-03
  0.1000000000D+04 -0.2318035474D-02
  0.2280000000D+03 -0.1149978604D-01
  0.6471000000D+02 -0.4682672701D-01
  0.2106000000D+02 -0.1284661688D+00
  0.7495000000D+01 -0.3012662725D+00
  0.2797000000D+01 -0.2556307023D+00
  0.5215000000D+00  0.1093793361D+01
 s    1  1.00
  0.1596000000D+00  0.1000000000D+01
 p    3  1.00
  0.9439000000D+01  0.5697925159D-01
  0.2002000000D+01  0.3132072115D+00
  0.5456000000D+00  0.7603767417D+00
 p    1  1.00
  0.1517000000D+00  0.1000000000D+01
 d    1  1.00
  0.5500000000D+00  0.1000000000D+01
  
  6 0
 s    8  1.00
  0.6665000000D+04  0.6915839628D-03
  0.1000000000D+04  0.5325796153D-02
  0.2280000000D+03  0.2706072104D-01
  0.6471000000D+02  0.1016568461D+00
  0.2106000000D+02  0.2745748236D+00
  0.7495000000D+01  0.4482943189D+00
  0.2797000000D+01  0.2849026107D+00
  0.5215000000D+00  0.1519485921D-01
 s    8  1.00
  0.6665000000D+04 -0.2932696527D-03
  0.1000000000D+04 -0.2318035474D-02
  0.2280000000D+03 -0.1149978604D-01
  0.6471000000D+02 -0.4682672701D-01
  0.2106000000D+02 -0.1284661688D+00
  0.7495000000D+01 -0.3012662725D+00
  0.2797000000D+01 -0.2556307023D+00
  0.5215000000D+00  0.1093793361D+01
 s    1  1.00
  0.1596000000D+00  0.1000000000D+01
 p    3  1.00
  0.9439000000D+01  0.5697925159D-01
  0.2002000000D+01  0.3132072115D+00
  0.5456000000D+00  0.7603767417D+00
 p    1  1.00
  0.1517000000D+00  0.1000000000D+01
 d    1  1.00
  0.5500000000D+00  0.1000000000D+01
  
  2 0
 s    8  1.00
  0.6665000000D+04  0.6915839628D-03
  0.1000000000D+04  0.5325796153D-02
  0.2280000000D+03  0.2706072104D-01
  0.6471000000D+02  0.1016568461D+00
  0.2106000000D+02  0.2745748236D+00
  0.7495000000D+01  0.4482943189D+00
  0.2797000000D+01  0.2849026107D+00
  0.5215000000D+00  0.1519485921D-01
 s    8  1.00
  0.6665000000D+04 -0.2932696527D-03
  0.1000000000D+04 -0.2318035474D-02
  0.2280000000D+03 -0.1149978604D-01
  0.6471000000D+02 -0.4682672701D-01
  0.2106000000D+02 -0.1284661688D+00
  0.7495000000D+01 -0.3012662725D+00
  0.2797000000D+01 -0.2556307023D+00
  0.5215000000D+00  0.1093793361D+01
 s    1  1.00
  0.1596000000D+00  0.1000000000D+01
 p    3  1.00
  0.9439000000D+01  0.5697925159D-01
  0.2002000000D+01  0.3132072115D+00
  0.5456000000D+00  0.7603767417D+00
 p    1  1.00
  0.1517000000D+00  0.1000000000D+01
 d    1  1.00
  0.5500000000D+00  0.1000000000D+01
  
  5 0
 s    8  1.00
  0.6665000000D+04  0.6915839628D-03
  0.1000000000D+04  0.5325796153D-02
  0.2280000000D+03  0.2706072104D-01
  0.6471000000D+02  0.1016568461D+00
  0.2106000000D+02  0.2745748236D+00
  0.7495000000D+01  0.4482943189D+00
  0.2797000000D+01  0.2849026107D+00
  0.5215000000D+00  0.1519485921D-01
 s    8  1.00
  0.6665000000D+04 -0.2932696527D-03
  0.1000000000D+04 -0.2318035474D-02
  0.2280000000D+03 -0.1149978604D-01
  0.6471000000D+02 -0.4682672701D-01
  0.2106000000D+02 -0.1284661688D+00
  0.7495000000D+01 -0.3012662725D+00
  0.2797000000D+01 -0.2556307023D+00
  0.5215000000D+00  0.1093793361D+01
 s    1  1.00
  0.1596000000D+00  0.1000000000D+01
 p    3  1.00
  0.9439000000D+01  0.5697925159D-01
  0.2002000000D+01  0.3132072115D+00
  0.5456000000D+00  0.7603767417D+00
 p    1  1.00
  0.1517000000D+00  0.1000000000D+01
 d    1  1.00
  0.5500000000D+00  0.1000000000D+01
  
  9 0
 s    8  1.00
  0.6665000000D+04  0.6915839628D-03
  0.1000000000D+04  0.5325796153D-02
  0.2280000000D+03  0.2706072104D-01
  0.6471000000D+02  0.1016568461D+00
  0.2106000000D+02  0.2745748236D+00
  0.7495000000D+01  0.4482943189D+00
  0.2797000000D+01  0.2849026107D+00
  0.5215000000D+00  0.1519485921D-01
 s    8  1.00
  0.6665000000D+04 -0.2932696527D-03
  0.1000000000D+04 -0.2318035474D-02
  0.2280000000D+03 -0.1149978604D-01
  0.6471000000D+02 -0.4682672701D-01
  0.2106000000D+02 -0.1284661688D+00
  0.7495000000D+01 -0.3012662725D+00
  0.2797000000D+01 -0.2556307023D+00
  0.5215000000D+00  0.1093793361D+01
 s    1  1.00
  0.1596000000D+00  0.1000000000D+01
 p    3  1.00
  0.9439000000D+01  0.5697925159D-01
  0.2002000000D+01  0.3132072115D+00
  0.5456000000D+00  0.7603767417D+00
 p    1  1.00
  0.1517000000D+00  0.1000000000D+01
 d    1  1.00
  0.5500000000D+00  0.1000000000D+01
  
 10 0
 s    8  1.00
  0.6665000000D+04  0.6915839628D-03
  0.1000000000D+04  0.5325796153D-02
  0.2280000000D+03  0.2706072104D-01
  0.6471000000D+02  0.1016568461D+00
  0.2106000000D+02  0.2745748236D+00
  0.7495000000D+01  0.4482943189D+00
  0.2797000000D+01  0.2849026107D+00
  0.5215000000D+00  0.1519485921D-01
 s    8  1.00
  0.6665000000D+04 -0.2932696527D-03
  0.1000000000D+04 -0.2318035474D-02
  0.2280000000D+03 -0.1149978604D-01
  0.6471000000D+02 -0.4682672701D-01
  0.2106000000D+02 -0.1284661688D+00
  0.7495000000D+01 -0.3012662725D+00
  0.2797000000D+01 -0.2556307023D+00
  0.5215000000D+00  0.1093793361D+01
 s    1  1.00
  0.1596000000D+00  0.1000000000D+01
 p    3  1.00
  0.9439000000D+01  0.5697925159D-01
  0.2002000000D+01  0.3132072115D+00
  0.5456000000D+00  0.7603767417D+00
 p    1  1.00
  0.1517000000D+00  0.1000000000D+01
 d    1  1.00
  0.5500000000D+00  0.1000000000D+01
  
  3 0
 s    3  1.00
  0.1301000000D+02  0.3349872639D-01
  0.1962000000D+01  0.2348008012D+00
  0.4446000000D+00  0.8136829579D+00
 s    1  1.00
  0.1220000000D+00  0.1000000000D+01
 p    1  1.00
  0.7270000000D+00  0.1000000000D+01
  
  8 0
 s    3  1.00
  0.1301000000D+02  0.3349872639D-01
  0.1962000000D+01  0.2348008012D+00
  0.4446000000D+00  0.8136829579D+00
 s    1  1.00
  0.1220000000D+00  0.1000000000D+01
 p    1  1.00
  0.7270000000D+00  0.1000000000D+01
  
  4 0
 s    3  1.00
  0.1301000000D+02  0.3349872639D-01
  0.1962000000D+01  0.2348008012D+00
  0.4446000000D+00  0.8136829579D+00
 s    1  1.00
  0.1220000000D+00  0.1000000000D+01
 p    1  1.00
  0.7270000000D+00  0.1000000000D+01
  
  7 0
 s    3  1.00
  0.1301000000D+02  0.3349872639D-01
  0.1962000000D+01  0.2348008012D+00
  0.4446000000D+00  0.8136829579D+00
 s    1  1.00
  0.1220000000D+00  0.1000000000D+01
 p    1  1.00
  0.7270000000D+00  0.1000000000D+01
  
 11 0
 s    3  1.00
  0.1301000000D+02  0.3349872639D-01
  0.1962000000D+01  0.2348008012D+00
  0.4446000000D+00  0.8136829579D+00
 s    1  1.00
  0.1220000000D+00  0.1000000000D+01
 p    1  1.00
  0.7270000000D+00  0.1000000000D+01
  
 12 0
 s    3  1.00
  0.1301000000D+02  0.3349872639D-01
  0.1962000000D+01  0.2348008012D+00
  0.4446000000D+00  0.8136829579D+00
 s    1  1.00
  0.1220000000D+00  0.1000000000D+01
 p    1  1.00
  0.7270000000D+00  0.1000000000D+01
 
 
[MO]
 Sym=      1.1
 Ene=     -11.2551
 Spin= Alpha
 Occup=    2.000000
1 0.55447395308860
2 0.001688546510812
3 -0.003974757709153
4 0.000287161132123
5 0.0
6 0.0
7 0.000462971905391
8 0.0
9 0.0
10 0.000189985708124
11 -0.000026291814477
12 -0.000163693893647
13 0.0
14 0.0
15 0.0
16 0.55447395308860
17 0.001688546510812
18 -0.003974757709153
19 -0.000287161132123
20 0.0
21 0.0
22 -0.000462971905391
23 0.0
24 0.0
25 0.000189985708124
26 -0.000026291814477
27 -0.000163693893647
28 0.0
29 0.0
30 0.0
31 0.31146954278652
32 0.001126339712299
33 -0.000649737008605
34 -0.000139343265840
35 -0.000560389848744
36 0.0
37 -0.000141529465429
38 0.000331342848642
39 0.0
40 0.000024299668011
41 -0.000037122644797
42 0.000012822976786
43 -0.000097646717443
44 0.0
45 0.0
46 0.31146954278652
47 0.001126339712299
48 -0.000649737008605
49 0.000139343265840
50 -0.000560389848744
51 0.0
52 0.000141529465429
53 0.000331342848642
54 0.0
55 0.000024299668011
56 -0.000037122644797
57 0.000012822976786
58 0.000097646717443
59 0.0
60 0.0
61 0.31146954278652
62 0.001126339712299
63 -0.000649737008605
64 0.000139343265840
65 0.000560389848744
66 0.0
67 0.000141529465429
68 -0.000331342848642
69 0.0
70 0.000024299668011
71 -0.000037122644797
72 0.000012822976786
73 -0.000097646717443
74 0.0
75 0.0
76 0.31146954278652
77 0.001126339712299
78 -0.000649737008605
79 -0.000139343265840
80 0.000560389848744
81 0.0
82 -0.000141529465429
83 -0.000331342848642
84 0.0
85 0.000024299668011
86 -0.000037122644797
87 0.000012822976786
88 0.000097646717443
89 0.0
90 0.0
91 -0.000210007428669
92 0.000719607295273
93 0.000216325667410
94 0.0
95 0.0
96 -0.000210007428669
97 0.000719607295273
98 -0.000216325667410
99 0.0
100 0.0
101 0.000264307345383
102 0.000693443728357
103 0.000003868671999
104 -0.000034660309637
105 0.0
106 0.000264307345383
107 0.000693443728357
108 -0.000003868671999
109 -0.000034660309637
110 0.0
111 0.000264307345383
112 0.000693443728357
113 -0.000003868671999
114 0.000034660309637
115 0.0
116 0.000264307345383
117 0.000693443728357
118 0.000003868671999
119 0.000034660309637
120 0.0
 Sym=      1.2
 Ene=     -11.2550
 Spin= Alpha
 Occup=    2.000000
1 0.65794398213079
2 0.002921622960830
3 -0.006229014663256
4 -0.000111995564445
5 0.0
6 0.0
7 0.001106133395744
8 0.0
9 0.0
10 0.000171955986451
11 0.000000505338884
12 -0.000172461325335
13 0.0
14 0.0
15 0.0
16 -0.65794398213079
17 -0.002921622960830
18 0.006229014663256
19 -0.000111995564445
20 0.0
21 0.0
22 0.001106133395744
23 0.0
24 0.0
25 -0.000171955986451
26 -0.000000505338884
27 0.000172461325335
28 0.0
29 0.0
30 0.0
31 0.18591681023741
32 0.000722393383958
33 -0.000440765158794
34 -0.000045473249510
35 -0.000018040852639
36 0.0
37 0.000842667779674
38 0.000952987026615
39 0.0
40 -0.000019113354418
41 -0.000084588153849
42 0.000103701508266
43 -0.000045449639476
44 0.0
45 0.0
46 -0.18591681023741
47 -0.000722393383958
48 0.000440765158794
49 -0.000045473249510
50 0.000018040852639
51 0.0
52 0.000842667779674
53 -0.000952987026615
54 0.0
55 0.000019113354418
56 0.000084588153849
57 -0.000103701508266
58 -0.000045449639476
59 0.0
60 0.0
61 -0.18591681023741
62 -0.000722393383958
63 0.000440765158794
64 -0.000045473249510
65 -0.000018040852639
66 0.0
67 0.000842667779674
68 0.000952987026615
69 0.0
70 0.000019113354418
71 0.000084588153849
72 -0.000103701508266
73 0.000045449639476
74 0.0
75 0.0
76 0.18591681023741
77 0.000722393383958
78 -0.000440765158794
79 -0.000045473249510
80 0.000018040852639
81 0.0
82 0.000842667779674
83 -0.000952987026615
84 0.0
85 -0.000019113354418
86 -0.000084588153849
87 0.000103701508266
88 0.000045449639476
89 0.0
90 0.0
91 -0.000224458742502
92 0.000500402211512
93 0.000265706035182
94 0.0
95 0.0
96 0.000224458742502
97 -0.000500402211512
98 0.000265706035182
99 0.0
100 0.0
101 0.000004487649783
102 0.000321481603283
103 0.000003176775065
104 -0.000035998519607
105 0.0
106 -0.000004487649783
107 -0.000321481603283
108 0.000003176775065
109 0.000035998519607
110 0.0
111 -0.000004487649783
112 -0.000321481603283
113 0.000003176775065
114 -0.000035998519607
115 0.0
116 0.000004487649783
117 0.000321481603283
118 0.000003176775065
119 0.000035998519607
120 0.0
 Sym=      1.3
 Ene=     -11.2542
 Spin= Alpha
 Occup=    2.000000
1 0.0
2 0.0
3 0.0
4 0.0
5 0.000088750975556
6 0.0
7 0.0
8 -0.001432226171637
9 0.0
10 0.0
11 0.0
12 0.0
13 -0.000069437420096
14 0.0
15 0.0
16 0.0
17 0.0
18 0.0
19 0.0
20 0.000088750975556
21 0.0
22 0.0
23 -0.001432226171637
24 0.0
25 0.0
26 0.0
27 0.0
28 0.000069437420096
29 0.0
30 0.0
31 0.50098845090062
32 0.002177392517794
33 -0.003959105548069
34 0.000021469658186
35 0.000074642498240
36 0.0
37 -0.000432643331938
38 -0.000708038421812
39 0.0
40 -0.000016661223610
41 0.000069211100679
42 -0.000052549877069
43 -0.000036844197602
44 0.0
45 0.0
46 0.50098845090062
47 0.002177392517794
48 -0.003959105548069
49 -0.000021469658186
50 0.000074642498240
51 0.0
52 0.000432643331938
53 -0.000708038421812
54 0.0
55 -0.000016661223610
56 0.000069211100679
57 -0.000052549877069
58 0.000036844197602
59 0.0
60 0.0
61 -0.50098845090062
62 -0.002177392517794
63 0.003959105548069
64 0.000021469658186
65 0.000074642498240
66 0.0
67 -0.000432643331938
68 -0.000708038421812
69 0.0
70 0.000016661223610
71 -0.000069211100679
72 0.000052549877069
73 0.000036844197602
74 0.0
75 0.0
76 -0.50098845090062
77 -0.002177392517794
78 0.003959105548069
79 -0.000021469658186
80 0.000074642498240
81 0.0
82 0.000432643331938
83 -0.000708038421812
84 0.0
85 0.000016661223610
86 -0.000069211100679
87 0.000052549877069
88 -0.000036844197602
89 0.0
90 0.0
91 0.0
92 0.0
93 0.0
94 0.000016737938917
95 0.0
96 0.0
97 0.0
98 0.0
99 0.000016737938917
100 0.0
101 -0.000139228148812
102 0.000495964177999
103 0.000100891369408
104 -0.000156590471563
105 0.0
106 -0.000139228148812
107 0.000495964177999
108 -0.000100891369408
109 -0.000156590471563
110 0.0
111 0.000139228148812
112 -0.000495964177999
113 0.000100891369408
114 -0.000156590471563
115 0.0
116 0.000139228148812
117 -0.000495964177999
118 -0.000100891369408
119 -0.000156590471563
120 0.0
 Sym=      2.1
 Ene=     -11.2535
 Spin= Alpha
 Occup=    2.000000
1 0.44122046544193
2 0.001706505151317
3 -0.006113500859764
4 0.000247805233928
5 0.0
6 0.0
7 0.001782905861161
8 0.0
9 0.0
10 0.000218203397404
11 0.000217852510797
12 -0.000436055908202
13 0.0
14 0.0
15 0.0
16 0.44122046544193
17 0.001706505151317
18 -0.006113500859764
19 -0.000247805233928
20 0.0
21 0.0
22 -0.001782905861161
23 0.0
24 0.0
25 0.000218203397404
26 0.000217852510797
27 -0.000436055908202
28 0.0
29 0.0
30 0.0
31 -0.39224700916949
32 -0.001561710580426
33 0.003842486966035
34 -0.000247181743156
35 -0.000669694819210
36 0.0
37 0.000068310573672
38 0.000738416705329
39 0.0
40 0.000020790045282
41 -0.000280019909008
42 0.000259229863727
43 -0.000043121829605
44 0.0
45 0.0
46 -0.39224700916949
47 -0.001561710580426
48 0.003842486966035
49 0.000247181743156
50 -0.000669694819210
51 0.0
52 -0.000068310573672
53 0.000738416705329
54 0.0
55 0.000020790045282
56 -0.000280019909008
57 0.000259229863727
58 0.000043121829605
59 0.0
60 0.0
61 -0.39224700916949
62 -0.001561710580426
63 0.003842486966035
64 0.000247181743156
65 0.000669694819210
66 0.0
67 -0.000068310573672
68 -0.000738416705329
69 0.0
70 0.000020790045282
71 -0.000280019909008
72 0.000259229863727
73 -0.000043121829605
74 0.0
75 0.0
76 -0.39224700916949
77 -0.001561710580426
78 0.003842486966035
79 -0.000247181743156
80 0.000669694819210
81 0.0
82 0.000068310573672
83 -0.000738416705329
84 0.0
85 0.000020790045282
86 -0.000280019909008
87 0.000259229863727
88 0.000043121829605
89 0.0
90 0.0
91 -0.000263119223948
92 0.000060932046727
93 0.000312609824895
94 0.0
95 0.0
96 -0.000263119223948
97 0.000060932046727
98 -0.000312609824895
99 0.0
100 0.0
101 0.000596876661484
102 -0.000204837514205
103 -0.000141731393085
104 0.000202630497745
105 0.0
106 0.000596876661484
107 -0.000204837514205
108 0.000141731393085
109 0.000202630497745
110 0.0
111 0.000596876661484
112 -0.000204837514205
113 0.000141731393085
114 -0.000202630497745
115 0.0
116 0.000596876661484
117 -0.000204837514205
118 -0.000141731393085
119 -0.000202630497745
120 0.0
 Sym=      1.4
 Ene=     -11.2531
 Spin= Alpha
 Occup=    2.000000
1 0.0
2 0.0
3 0.0
4 0.0
5 0.000135591041101
6 0.0
7 0.0
8 -0.000679066120721
9 0.0
10 0.0
11 0.0
12 0.0
13 -0.000184810203328
14 0.0
15 0.0
16 0.0
17 0.0
18 0.0
19 0.0
20 -0.000135591041101
21 0.0
22 0.0
23 0.000679066120721
24 0.0
25 0.0
26 0.0
27 0.0
28 -0.000184810203328
29 0.0
30 0.0
31 0.50122721082109
32 0.002377549354789
33 -0.005738002846074
34 -0.000029535604297
35 0.000011994178053
36 0.0
37 0.001014959100119
38 -0.001101832426611
39 0.0
40 0.000249823065965
41 0.000161914859725
42 -0.000411737925690
43 -0.000068173202592
44 0.0
45 0.0
46 -0.50122721082109
47 -0.002377549354789
48 0.005738002846074
49 -0.000029535604297
50 -0.000011994178053
51 0.0
52 0.001014959100119
53 0.001101832426611
54 0.0
55 -0.000249823065965
56 -0.000161914859725
57 0.000411737925690
58 -0.000068173202592
59 0.0
60 0.0
61 0.50122721082109
62 0.002377549354789
63 -0.005738002846074
64 0.000029535604297
65 -0.000011994178053
66 0.0
67 -0.001014959100119
68 0.001101832426611
69 0.0
70 0.000249823065965
71 0.000161914859725
72 -0.000411737925690
73 -0.000068173202592
74 0.0
75 0.0
76 -0.50122721082109
77 -0.002377549354789
78 0.005738002846074
79 0.000029535604297
80 0.000011994178053
81 0.0
82 -0.001014959100119
83 -0.001101832426611
84 0.0
85 -0.000249823065965
86 -0.000161914859725
87 0.000411737925690
88 -0.000068173202592
89 0.0
90 0.0
91 0.0
92 0.0
93 0.0
94 0.000020690623628
95 0.0
96 0.0
97 0.0
98 0.0
99 -0.000020690623628
100 0.0
101 -0.000264843605592
102 0.000192172898789
103 0.000149623831521
104 -0.000271301054465
105 0.0
106 0.000264843605592
107 -0.000192172898789
108 0.000149623831521
109 0.000271301054465
110 0.0
111 -0.000264843605592
112 0.000192172898789
113 -0.000149623831521
114 0.000271301054465
115 0.0
116 0.000264843605592
117 -0.000192172898789
118 -0.000149623831521
119 -0.000271301054465
120 0.0
 Sym=      2.2
 Ene=     -11.2528
 Spin= Alpha
 Occup=    2.000000
1 -0.26337501875036
2 -0.001495079467321
3 0.006381346929395
4 0.000069988608348
5 0.0
6 0.0
7 -0.002543534999038
8 0.0
9 0.0
10 -0.000292757750374
11 -0.000230456154079
12 0.000523213904453
13 0.0
14 0.0
15 0.0
16 0.26337501875036
17 0.001495079467321
18 -0.006381346929395
19 0.000069988608348
20 0.0
21 0.0
22 -0.002543534999038
23 0.0
24 0.0
25 0.000292757750374
26 0.000230456154079
27 -0.000523213904453
28 0.0
29 0.0
30 0.0
31 0.46552160288930
32 0.002376452924445
33 -0.007998019530486
34 -0.000016530313520
35 0.000076243172121
36 0.0
37 0.001613634198603
38 -0.002208390580580
39 0.0
40 0.000243330709857
41 0.000292304158669
42 -0.000535634868525
43 -0.000061320958292
44 0.0
45 0.0
46 -0.46552160288930
47 -0.002376452924445
48 0.007998019530486
49 -0.000016530313520
50 -0.000076243172121
51 0.0
52 0.001613634198603
53 0.002208390580580
54 0.0
55 -0.000243330709857
56 -0.000292304158669
57 0.000535634868525
58 -0.000061320958292
59 0.0
60 0.0
61 -0.46552160288930
62 -0.002376452924445
63 0.007998019530486
64 -0.000016530313520
65 0.000076243172121
66 0.0
67 0.001613634198603
68 -0.002208390580580
69 0.0
70 -0.000243330709857
71 -0.000292304158669
72 0.000535634868525
73 0.000061320958292
74 0.0
75 0.0
76 0.46552160288930
77 0.002376452924445
78 -0.007998019530486
79 -0.000016530313520
80 -0.000076243172121
81 0.0
82 0.001613634198603
83 0.002208390580580
84 0.0
85 0.000243330709857
86 0.000292304158669
87 -0.000535634868525
88 0.000061320958292
89 0.0
90 0.0
91 0.000291418547848
92 0.000325558676369
93 -0.000239354777152
94 0.0
95 0.0
96 -0.000291418547848
97 -0.000325558676369
98 -0.000239354777152
99 0.0
100 0.0
101 -0.000364796574278
102 -0.000130244649994
103 0.000159134346522
104 -0.000280124725559
105 0.0
106 0.000364796574278
107 0.000130244649994
108 0.000159134346522
109 0.000280124725559
110 0.0
111 0.000364796574278
112 0.000130244649994
113 0.000159134346522
114 -0.000280124725559
115 0.0
116 -0.000364796574278
117 -0.000130244649994
118 0.000159134346522
119 0.000280124725559
120 0.0
 Sym=      3.1
 Ene=      -1.1505
 Spin= Alpha
 Occup=    2.000000
1 -0.009803502041641
2 0.15128589140677
3 0.076332961292367
4 -0.054911525926423
5 0.0
6 0.0
7 -0.005209710894852
8 0.0
9 0.0
10 0.000365923934833
11 0.008590218338274
12 -0.008956142273106
13 0.0
14 0.0
15 0.0
16 -0.009803502041641