[Molden Format]
[Molpro variables]
_NUMVAR=  828.0000000000000    
_AVOGAD= 0.6022136736000000E+24
_BOLTZ= 0.1380658000000000E-22
_CLIGHT=  29979245800.00000    
_EV2006= 0.3674930886769165E-01
_EV= 0.3674932534394180E-01
_ENULL= 0.8854187817000000E-11
_KJOULE= 0.3808798324128737E-03
_KJOULE/MOL= 0.3808798324128737E-03
_CM= 0.4556335267302901E-05
_CM-1= 0.4556335267302901E-05
_DEB2SI= 0.3335641000000000E-29
_AMU2AU=  1822.888390000000    
_KCAL= 0.1593601117815568E-02
_KCAL/MOL= 0.1593601117815568E-02
_KELVIN2006= 0.3166828861084835E-05
_KELVIN= 0.3166814820820034E-05
_JOULE= 0.4359748200000000E-17
_HERTZ2006= 0.1519829850815779E-15
_HERTZ= 0.1519829846011223E-15
_HZ2006= 0.1519829850815779E-15
_HZ= 0.1519829846011223E-15
_JPCAL=  4.184000000000000    
_PLANCK= 0.6626075540000000E-33
_TOA2006= 0.5291772490000000    
_TOA= 0.5291772090000000    
_TOANG2006= 0.5291772490000000    
_TOANG= 0.5291772090000000    
_TORAD= 0.1745329251994330E-01
_TOCM=  219474.6306700000    
_TODEBYE=  2.541580000000000    
_TOEV2006=  27.21139610000000    
_TOE= 0.4803242000000000E-09
_TOEV=  27.21138390000000    
_TOHERTZ2006=  6579683899900000.    
_TOHERTZ=  6579683920700000.    
_TOHZ2006=  6579683899900000.    
_TOHZ=  6579683920700000.    
_TOK2006=  315773.3000000000    
_TOK=  315774.7000000000    
_TOKCAL=  627.5096000000000    
_TOKELVIN2006=  315773.3000000000    
_TOKELVIN=  315774.7000000000    
_TOKJ=  2625.500000000000    
_TOKJOULE=  2625.500000000000    
_TOKG= 0.1660565586000000E-26
_ANG2006=  1.889725988578923    
_ANG=  1.889726131421507    
_ANGSTROM2006=  1.889725988578923    
_ANGSTROM=  1.889726131421507    
_RPAREF=  0.000000000000000    
_RPADISS=  0.000000000000000    
_IGNORE_UNDEF=  2.000000000000000    
_STRICTCHECK=  0.000000000000000    
_SEW_ONEEL=  0.000000000000000    
_CPPDONE=FALSE
_DKROLL_DONE=  0.000000000000000    
_FOCKDONE=TRUE
_GRADONE=FALSE
_HESSDONE=FALSE
_INTDONE=TRUE
_SCFDONE=TRUE
_MODUL_BLOCK=FALSE
_MODUL_CUDA=FALSE
_MODUL_SLATER=FALSE
_MODUL_MRCC=FALSE
_MODUL_NBO6=FALSE
_MODUL_NECI=TRUE
_MODUL_AIMS=TRUE
_MRCC_EXEC=
_FITC_AO_SAVED=FALSE
_FITC_MO_SAVED=FALSE
_SHARED_FS=TRUE
_LSTYP=SEWARD
_INTYP=INTS
_GEOMTYP=ZMAT
_GRADTYP=ALASKA
_DIRECT=FALSE
_DKHO= -1.000000000000000    
_SYNCM=  0.000000000000000    
_BASIS=USERDEF
_ZORIENT=  1.000000000000000    
_NELEC=  58.00000000000000    
!SPIN=  0.000000000000000    
_QSDSTEP=  0.000000000000000    
_QSDIRC=  0.000000000000000    
_PROGRAM=MATROP
_CPUSTEP= 0.4900000000000091    
_SYSSTEP= 0.1999999999999957E-01
_WALLSTEP= 0.2100000000000000    
!DFSCF=  0.000000000000000    
!SCSGRD=  0.000000000000000    
_BASINP=  610.0000000000000    
_CPUTOT=  265.8900000000000    
_DFTEXFAC=  1.000000000000000    
_DMX=  0.000000000000000    
_DMY=  0.000000000000000    
_DMZ=  0.000000000000000    
_DMX_SCF= 0.7004600220080075    
_DMY_SCF=  0.000000000000000    
_DMZ_SCF= -1.075299247646417    
_EHOMO=-0.3229767027609272    
_ELUMO= 0.1116440972967105    
_ENUC=  360.8014524679945    
_EPS1= -20.62856035658626    
_EPS2=-0.6791348872869974    
_GRADEXFAC=  9999.000000000000    
_GRADMETHOD=TRUE
_NMRMETHOD=  0.000000000000000    
!GRID_FREEZE= -1.000000000000000    
_ITERATIONS=  0.000000000000000    
_LASTNELEC=  10.00000000000000    
_LASTSPIN=  2.000000000000000    
_LASTSYM=  1.000000000000000    
_MPP_PROG=  0.000000000000000    
_NPROC_MPP=  1.000000000000000    
_NPROC_MPPX=  1.000000000000000    
_NPROC_SMP=  16.00000000000000    
_NUMSTEP=  0.000000000000000    
_ORBITAL=  2141.200000000000    
_PI=  3.141592653589793    
_SEIG_MIN= 0.1419611248759593E-02
_SEWPROP=TRUE
_STATUS=  0.000000000000000    
_SYSTOT=  23.03000000000000    
_VERSION=  2012001.000000000    
_WALLTOT=  159.1700000000000    
_DATE=24-Jan-19
_LASTORB=MCSCF
_MACHINE=Linux-4.9.0-8-amd64/nympha18.meta.zcu.cz(x86_64) (16 PROC) 64 bit serial version
_OUTPUT=/auto/brno2/home/masiz4am/git/UKRmol-in/tests/suite/Cs_target_CAS2/molpro.xml
_PGROUP=Cs
_TIME=16:22:40
_LIBMOL=/afs/ics.muni.cz/software/molpro-2012.1/molprop_2012_1_Linux_x86_64_i8/lib/
!VIBCNT=  0.000000000000000    
!RGHFCNT=  0.000000000000000    
!SURFREC=  0.000000000000000    
!POLYREC=  0.000000000000000    
!DIPREC=  0.000000000000000    
!VSCFREC=  0.000000000000000    
!VCIREC=  0.000000000000000    
!PVCIREC=  0.000000000000000    
!VMP2REC=  0.000000000000000    
!VMCSCFREC=  0.000000000000000    
!VMRCIREC=  0.000000000000000    
!VIBINFO=  0.000000000000000    
!GAREC=  0.000000000000000    
!SCFORB=  21002.00000000000    
!MCORB=  21412.00000000000    
!NEWMOL= -1.000000000000000    
!NEWSYM= -1.000000000000000    
_SLFILES=slscratch
_NGSSTO=  9.000000000000000    
_SIN=SIN
_COS=COS
_TAN=TAN
_ACOS=ACOS
_ASIN=ASIN
_ATAN=ATAN
_COSH=COSH
_SINH=SINH
_TANH=TANH
_ABS=ABS
_MOD=MOD
_ERF=ERF
_REFC=REFC
_ERFC=ERFC
_HYPOT=HYPOT
_J0=J0
_J1=J1
_JN=JN
_GAMMA=GAMMA
_LGAMMA=LGAMMA
_Y0=Y0
_Y1=Y1
_YN=YN
_EXP=EXP
_LOG=LOG
_LOG10=LOG10
_SQRT=SQRT
_INT=INT
_NINT=NINT
_MAX=MAX
_MIN=MIN
_COSMO=  0.000000000000000    
_COSMOIT=  0.000000000000000    
_COSMOES=  0.000000000000000    
_COSMOEDS=  0.000000000000000    
_COSMOEC=  0.000000000000000    
_COSMOEDCORR=  0.000000000000000    
_FEPSI=  1.000000000000000    
_SL_IsMM=  0.000000000000000    
_SL_NSYM=  2.000000000000000    
_SL_System_BitSw=  0.000000000000000    
_SL_Unique_atoms=  0.000000000000000    
_SL_GRAD=  0.000000000000000    
_SL_MAXUPD_Hess=  5.000000000000000    
_SL_N_PRINT_COD=  5.000000000000000    
_SL_PRINT_CODES=  0.000000000000000    
_SL_BasType=  0.000000000000000    
_SL_Energy_Pred=  0.000000000000000    
_SL_New_Coords=  0.000000000000000    
_SL_Total_Nuclea=  0.000000000000000    
_SL_Highest_Mltp=  0.000000000000000    
_SL_Ref_Geom=  0.000000000000000    
_SL_Symmetry_ope=  1.000000000000000    
_SL_agrad=  0.000000000000000    
_SL_GrdMax=  0.000000000000000    
_SL_GrdNorm=  0.000000000000000    
_SL_GrdRMS=  0.000000000000000    
!LATTICE= -1.000000000000000    
!NEWLATTICE=  0.000000000000000    
!LATGRAD_VAR=FALSE
!SEW_LATTICE=  1.000000000000000    
!LOCAL=  0.000000000000000    
!SAVEDOM= -1.000000000000000    
!RESTDOM= -1.000000000000000    
!SAVEDOM_HF= -1.000000000000000    
!RESTDOM_HF= -1.000000000000000    
!HESSREC=  0.000000000000000    
!FREQREC=  0.000000000000000    
!NMODREC=  0.000000000000000    
!GTASKS=  0.000000000000000    
!HTASKS=  0.000000000000000    
!THRCHG= 0.1000000000000000    
!DEBUG= -1.000000000000000    
!CFIT_CPHF=  0.000000000000000    
!RDOMAUX_CPHF=  3.000000000000000    
!THRAO_CPHF= 0.1000000000000000E-09
!THRMO_CPHF= 0.1000000000000000E-08
!THROV_CPHF= 0.1000000000000000E-11
!THRSW_CPHF= 0.1000000000000000E-09
!THRPROD_CPHF= 0.1000000000000000E-08
!THRAOPR_CPHF= 0.1000000000000000E-11
!CFIT_SCFGRD=  0.000000000000000    
!RDOMAUX_SCFGRD=  5.000000000000000    
!THRAO_SCFGRD= 0.1000000000000000E-09
!THRMO_SCFGRD= 0.1000000000000000E-08
!THROV_SCFGRD= 0.1000000000000000E-11
!THRSW_SCFGRD= 0.1000000000000000E-09
!THRPROD_SCFGRD= 0.1000000000000000E-08
!THRAOPR_SCFGRD= 0.1000000000000000E-11
!LOCFIT_SCF=  0.000000000000000    
!LOCFIT_MP2= -1.000000000000000    
_RIDOM=  0.000000000000000    
!CC2_METHOD=  0.000000000000000    
_BASIS2006=FALSE
_SVDDEL= -1.000000000000000    
_SVDDELA= -1.000000000000000    
_SVDDELP= -1.000000000000000    
_SVDDELF= -1.000000000000000    
_SVDDELS= -1.000000000000000    
_SVDDEL_ABS= -1.000000000000000    
_SVDDELA_ABS= -1.000000000000000    
_SVDDELP_ABS= -1.000000000000000    
_SVDDELF_ABS= -1.000000000000000    
_SVDDELS_ABS= -1.000000000000000    
_MAXBASIS=  0.000000000000000    
!OPT_CONICAL=  0.000000000000000    
!CLEARSP_JGRID=  0.000000000000000    
_4EXT_NDISKS=  1.000000000000000    
!ZMP=  0.000000000000000    
_MAXIT_ZMP=  500.0000000000000    
_MAXDIS_ZMP=  100.0000000000000    
_ACCU_ZMP=  14.00000000000000    
_SHIFTA_ZMP= -100.0000000000000    
!EMBEDFLAG=  1.000000000000000    
!EMBED=FALSE
!EMBED_F12=FALSE
!EMBEDNUC=  0.000000000000000    
_EMBEDENERGY=  0.000000000000000    
_KSPACETIME=  0.000000000000000    
_RSPACETIME=  0.000000000000000    
!EMBED_DFC=FALSE
!NUM_VOIDS=  0.000000000000000    
_IBODY=  0.000000000000000    
_EMBE_TOTAL=  0.000000000000000    
_EMBE_HF=  0.000000000000000    
_EMBE_CORR=  0.000000000000000    
!EDFT=  0.000000000000000    
_IFASTLATGRAD=  0.000000000000000    
_SINDEX=  0.000000000000000    
M_NAME=CASSCF(10,8)
M_CLOSED=  22.00000000000000    
M_OCC=  25.00000000000000    
GX1= 0.7342000000000000    
GY1=  0.000000000000000    
GZ1=  2.390300000000000    
GX2= -2.003500000000000    
GY2=  0.000000000000000    
GZ2=  2.328300000000000    
GX3=  1.878600000000000    
GY3=  0.000000000000000    
GZ3=  0.000000000000000    
GX4= -3.216300000000000    
GY4=  0.000000000000000    
GZ4= 0.1009000000000000    
GX5=  2.017300000000000    
GY5=  0.000000000000000    
GZ5=  4.309300000000000    
GX6= -1.929400000000000    
GY6=  0.000000000000000    
GZ6= -2.151500000000000    
GX7= 0.6820000000000001    
GY7=  0.000000000000000    
GZ7= -2.309400000000000    
GX8=  1.789900000000000    
GY8=  0.000000000000000    
GZ8= -4.331100000000000    
GX9= -2.981200000000000    
GY9=  0.000000000000000    
GZ9=  4.109200000000000    
GX10=  3.780800000000000    
GY10=  0.000000000000000    
GZ10=-0.7290000000000001E-01
GX11= -5.251700000000000    
GY11=  0.000000000000000    
GZ11=-0.4140000000000000E-01
GX12=  2.829700000000000    
GY12=  0.000000000000000    
GZ12= -3.821000000000000    
_TRDMX= -1.155852700651576    
_TRDMY=  0.000000000000000    
_TRDMZ= 0.6218085374025220    
_QMXX=  10.24348309367972    
_TRQMXX= 0.5658585552540505    
_QMYY= 0.8201868106824577    
_TRQMYY=-0.4045474415724115    
_QMZZ= -11.06366990436231    
_TRQMZZ=-0.1613111136816396    
_QMXY=  0.000000000000000    
_TRQMXY=  0.000000000000000    
_QMXZ= -12.94294109561853    
_TRQMXZ=  1.944861040728280    
_QMYZ=  0.000000000000000    
_TRQMYZ=  0.000000000000000    
_QMRR= -103.0645164649601    
_TRQMRR= 0.9682910195096461    
[Atoms] Angs
C     1    6         0.3885219068        0.0000000000        1.2648922827
C     2    6        -1.0602065382        0.0000000000        1.2320832957
N     3    7         0.9941123048        0.0000000000        0.0000000000
C     4    6        -1.7019926573        0.0000000000        0.0533939804
O     5    8         1.0675091837        0.0000000000        2.2803833467
N     6    7        -1.0209945070        0.0000000000       -1.1385247652
C     7    6         0.3608988565        0.0000000000       -1.2220818465
O     8    8         0.9471742864        0.0000000000       -2.2919194099
H     9    1        -1.5775830955        0.0000000000        2.1744949872
H    10    1         2.0007131918        0.0000000000       -0.0385770185
H    11    1        -2.7790799485        0.0000000000       -0.0219079365
H    12    1         1.4974127483        0.0000000000       -2.0219861156
[GTO]
  1 0
 s    8  1.00
  0.6665000000D+04  0.6915839628D-03
  0.1000000000D+04  0.5325796153D-02
  0.2280000000D+03  0.2706072104D-01
  0.6471000000D+02  0.1016568461D+00
  0.2106000000D+02  0.2745748236D+00
  0.7495000000D+01  0.4482943189D+00
  0.2797000000D+01  0.2849026107D+00
  0.5215000000D+00  0.1519485921D-01
 s    8  1.00
  0.6665000000D+04 -0.2932696527D-03
  0.1000000000D+04 -0.2318035474D-02
  0.2280000000D+03 -0.1149978604D-01
  0.6471000000D+02 -0.4682672701D-01
  0.2106000000D+02 -0.1284661688D+00
  0.7495000000D+01 -0.3012662725D+00
  0.2797000000D+01 -0.2556307023D+00
  0.5215000000D+00  0.1093793361D+01
 s    1  1.00
  0.1596000000D+00  0.1000000000D+01
 p    3  1.00
  0.9439000000D+01  0.5697925159D-01
  0.2002000000D+01  0.3132072115D+00
  0.5456000000D+00  0.7603767417D+00
 p    1  1.00
  0.1517000000D+00  0.1000000000D+01
 d    1  1.00
  0.5500000000D+00  0.1000000000D+01
  
  2 0
 s    8  1.00
  0.6665000000D+04  0.6915839628D-03
  0.1000000000D+04  0.5325796153D-02
  0.2280000000D+03  0.2706072104D-01
  0.6471000000D+02  0.1016568461D+00
  0.2106000000D+02  0.2745748236D+00
  0.7495000000D+01  0.4482943189D+00
  0.2797000000D+01  0.2849026107D+00
  0.5215000000D+00  0.1519485921D-01
 s    8  1.00
  0.6665000000D+04 -0.2932696527D-03
  0.1000000000D+04 -0.2318035474D-02
  0.2280000000D+03 -0.1149978604D-01
  0.6471000000D+02 -0.4682672701D-01
  0.2106000000D+02 -0.1284661688D+00
  0.7495000000D+01 -0.3012662725D+00
  0.2797000000D+01 -0.2556307023D+00
  0.5215000000D+00  0.1093793361D+01
 s    1  1.00
  0.1596000000D+00  0.1000000000D+01
 p    3  1.00
  0.9439000000D+01  0.5697925159D-01
  0.2002000000D+01  0.3132072115D+00
  0.5456000000D+00  0.7603767417D+00
 p    1  1.00
  0.1517000000D+00  0.1000000000D+01
 d    1  1.00
  0.5500000000D+00  0.1000000000D+01
  
  3 0
 s    8  1.00
  0.9046000000D+04  0.6996174134D-03
  0.1357000000D+04  0.5386054630D-02
  0.3093000000D+03  0.2739102119D-01
  0.8773000000D+02  0.1031505920D+00
  0.2856000000D+02  0.2785706633D+00
  0.1021000000D+02  0.4482948495D+00
  0.3838000000D+01  0.2780859284D+00
  0.7466000000D+00  0.1543156123D-01
 s    8  1.00
  0.9046000000D+04 -0.3049900960D-03
  0.1357000000D+04 -0.2408026379D-02
  0.3093000000D+03 -0.1194444873D-01
  0.8773000000D+02 -0.4892599291D-01
  0.2856000000D+02 -0.1344727247D+00
  0.1021000000D+02 -0.3151125777D+00
  0.3838000000D+01 -0.2428578325D+00
  0.7466000000D+00  0.1094382207D+01
 s    1  1.00
  0.2248000000D+00  0.1000000000D+01
 p    3  1.00
  0.1355000000D+02  0.5890567677D-01
  0.2917000000D+01  0.3204611067D+00
  0.7973000000D+00  0.7530420618D+00
 p    1  1.00
  0.2185000000D+00  0.1000000000D+01
 d    1  1.00
  0.8170000000D+00  0.1000000000D+01
  
  4 0
 s    8  1.00
  0.6665000000D+04  0.6915839628D-03
  0.1000000000D+04  0.5325796153D-02
  0.2280000000D+03  0.2706072104D-01
  0.6471000000D+02  0.1016568461D+00
  0.2106000000D+02  0.2745748236D+00
  0.7495000000D+01  0.4482943189D+00
  0.2797000000D+01  0.2849026107D+00
  0.5215000000D+00  0.1519485921D-01
 s    8  1.00
  0.6665000000D+04 -0.2932696527D-03
  0.1000000000D+04 -0.2318035474D-02
  0.2280000000D+03 -0.1149978604D-01
  0.6471000000D+02 -0.4682672701D-01
  0.2106000000D+02 -0.1284661688D+00
  0.7495000000D+01 -0.3012662725D+00
  0.2797000000D+01 -0.2556307023D+00
  0.5215000000D+00  0.1093793361D+01
 s    1  1.00
  0.1596000000D+00  0.1000000000D+01
 p    3  1.00
  0.9439000000D+01  0.5697925159D-01
  0.2002000000D+01  0.3132072115D+00
  0.5456000000D+00  0.7603767417D+00
 p    1  1.00
  0.1517000000D+00  0.1000000000D+01
 d    1  1.00
  0.5500000000D+00  0.1000000000D+01
  
  5 0
 s    8  1.00
  0.1172000000D+05  0.7096459465D-03
  0.1759000000D+04  0.5467272292D-02
  0.4008000000D+03  0.2782311861D-01
  0.1137000000D+03  0.1047477397D+00
  0.3703000000D+02  0.2829208464D+00
  0.1327000000D+02  0.4484952387D+00
  0.5025000000D+01  0.2708168852D+00
  0.1013000000D+01  0.1545029161D-01
 s    8  1.00
  0.1172000000D+05 -0.3144434117D-03
  0.1759000000D+04 -0.2482137681D-02
  0.4008000000D+03 -0.1231635538D-01
  0.1137000000D+03 -0.5053891734D-01
  0.3703000000D+02 -0.1393849033D+00
  0.1327000000D+02 -0.3250774948D+00
  0.5025000000D+01 -0.2298483076D+00
  0.1013000000D+01  0.1095379347D+01
 s    1  1.00
  0.3023000000D+00  0.1000000000D+01
 p    3  1.00
  0.1770000000D+02  0.6267916628D-01
  0.3854000000D+01  0.3335365659D+00
  0.1046000000D+01  0.7412396416D+00
 p    1  1.00
  0.2753000000D+00  0.1000000000D+01
 d    1  1.00
  0.1185000000D+01  0.1000000000D+01
  
  6 0
 s    8  1.00
  0.9046000000D+04  0.6996174134D-03
  0.1357000000D+04  0.5386054630D-02
  0.3093000000D+03  0.2739102119D-01
  0.8773000000D+02  0.1031505920D+00
  0.2856000000D+02  0.2785706633D+00
  0.1021000000D+02  0.4482948495D+00
  0.3838000000D+01  0.2780859284D+00
  0.7466000000D+00  0.1543156123D-01
 s    8  1.00
  0.9046000000D+04 -0.3049900960D-03
  0.1357000000D+04 -0.2408026379D-02
  0.3093000000D+03 -0.1194444873D-01
  0.8773000000D+02 -0.4892599291D-01
  0.2856000000D+02 -0.1344727247D+00
  0.1021000000D+02 -0.3151125777D+00
  0.3838000000D+01 -0.2428578325D+00
  0.7466000000D+00  0.1094382207D+01
 s    1  1.00
  0.2248000000D+00  0.1000000000D+01
 p    3  1.00
  0.1355000000D+02  0.5890567677D-01
  0.2917000000D+01  0.3204611067D+00
  0.7973000000D+00  0.7530420618D+00
 p    1  1.00
  0.2185000000D+00  0.1000000000D+01
 d    1  1.00
  0.8170000000D+00  0.1000000000D+01
  
  7 0
 s    8  1.00
  0.6665000000D+04  0.6915839628D-03
  0.1000000000D+04  0.5325796153D-02
  0.2280000000D+03  0.2706072104D-01
  0.6471000000D+02  0.1016568461D+00
  0.2106000000D+02  0.2745748236D+00
  0.7495000000D+01  0.4482943189D+00
  0.2797000000D+01  0.2849026107D+00
  0.5215000000D+00  0.1519485921D-01
 s    8  1.00
  0.6665000000D+04 -0.2932696527D-03
  0.1000000000D+04 -0.2318035474D-02
  0.2280000000D+03 -0.1149978604D-01
  0.6471000000D+02 -0.4682672701D-01
  0.2106000000D+02 -0.1284661688D+00
  0.7495000000D+01 -0.3012662725D+00
  0.2797000000D+01 -0.2556307023D+00
  0.5215000000D+00  0.1093793361D+01
 s    1  1.00
  0.1596000000D+00  0.1000000000D+01
 p    3  1.00
  0.9439000000D+01  0.5697925159D-01
  0.2002000000D+01  0.3132072115D+00
  0.5456000000D+00  0.7603767417D+00
 p    1  1.00
  0.1517000000D+00  0.1000000000D+01
 d    1  1.00
  0.5500000000D+00  0.1000000000D+01
  
  8 0
 s    8  1.00
  0.1172000000D+05  0.7096459465D-03
  0.1759000000D+04  0.5467272292D-02
  0.4008000000D+03  0.2782311861D-01
  0.1137000000D+03  0.1047477397D+00
  0.3703000000D+02  0.2829208464D+00
  0.1327000000D+02  0.4484952387D+00
  0.5025000000D+01  0.2708168852D+00
  0.1013000000D+01  0.1545029161D-01
 s    8  1.00
  0.1172000000D+05 -0.3144434117D-03
  0.1759000000D+04 -0.2482137681D-02
  0.4008000000D+03 -0.1231635538D-01
  0.1137000000D+03 -0.5053891734D-01
  0.3703000000D+02 -0.1393849033D+00
  0.1327000000D+02 -0.3250774948D+00
  0.5025000000D+01 -0.2298483076D+00
  0.1013000000D+01  0.1095379347D+01
 s    1  1.00
  0.3023000000D+00  0.1000000000D+01
 p    3  1.00
  0.1770000000D+02  0.6267916628D-01
  0.3854000000D+01  0.3335365659D+00
  0.1046000000D+01  0.7412396416D+00
 p    1  1.00
  0.2753000000D+00  0.1000000000D+01
 d    1  1.00
  0.1185000000D+01  0.1000000000D+01
  
  9 0
 s    3  1.00
  0.1301000000D+02  0.3349872639D-01
  0.1962000000D+01  0.2348008012D+00
  0.4446000000D+00  0.8136829579D+00
 s    1  1.00
  0.1220000000D+00  0.1000000000D+01
 p    1  1.00
  0.7270000000D+00  0.1000000000D+01
  
 10 0
 s    3  1.00
  0.1301000000D+02  0.3349872639D-01
  0.1962000000D+01  0.2348008012D+00
  0.4446000000D+00  0.8136829579D+00
 s    1  1.00
  0.1220000000D+00  0.1000000000D+01
 p    1  1.00
  0.7270000000D+00  0.1000000000D+01
  
 11 0
 s    3  1.00
  0.1301000000D+02  0.3349872639D-01
  0.1962000000D+01  0.2348008012D+00
  0.4446000000D+00  0.8136829579D+00
 s    1  1.00
  0.1220000000D+00  0.1000000000D+01
 p    1  1.00
  0.7270000000D+00  0.1000000000D+01
  
 12 0
 s    3  1.00
  0.1301000000D+02  0.3349872639D-01
  0.1962000000D+01  0.2348008012D+00
  0.4446000000D+00  0.8136829579D+00
 s    1  1.00
  0.1220000000D+00  0.1000000000D+01
 p    1  1.00
  0.7270000000D+00  0.1000000000D+01
 
 
[MO]
 Sym=      1.1
 Ene=     -20.6286
 Spin= Alpha
 Occup=    2.000000
1 -0.000103156142491
2 -0.000191078289740
3 -0.000054539941769
4 -0.000013993292345
5 0.0
6 0.000070635566085
7 0.000102687382694
8 0.0
9 -0.000201961541757
10 0.000049711704727
11 -0.000021504344860
12 -0.000028207359867
13 0.0
14 -0.000068287772063
15 0.0
16 -0.000051950413226
17 -0.000100607199912
18 -0.000073865692392
19 -0.000003590909368
20 0.0
21 0.000031715042692
22 0.000082986668140
23 0.0
24 0.000062034096326
25 0.000006425733318
26 -0.000006176042603
27 -0.000000249690716
28 0.0
29 0.000000816116015
30 0.0
31 -0.000089321589832
32 -0.000178215087495
33 0.000624535031834
34 0.000068247452684
35 0.0
36 0.000055985246343
37 -0.000941478018955
38 0.0
39 0.000156639781679
40 0.000177951722509
41 -0.000026824546130
42 -0.000151127176379
43 0.0
44 0.000054949598361
45 0.0
46 -0.000128641094386
47 -0.000232409980630
48 0.000329681560610
49 -0.000064774240157
50 0.0
51 0.000039456105370
52 0.000540451477468
53 0.0
54 -0.000020812974277
55 -0.000017218614127
56 -0.000056057443909
57 0.000073276058036
58 0.0
59 -0.000003108342816
60 0.0
61 -0.000008830115446
62 -0.000012879588243
63 0.000115079057183
64 -0.000007449591630
65 0.0
66 -0.000015026655015
67 -0.000060745693922
68 0.0
69 0.000004269429053
70 0.000006154666924
71 -0.000002059321608
72 -0.000004095345316
73 0.0
74 0.000015337254599
75 0.0
76 -0.000119879778633
77 -0.000237547890405
78 0.000772788161307
79 -0.000066593225748
80 0.0
81 0.000003821230630
82 0.000225308338950
83 0.0
84 0.000534377971749
85 -0.000036549636115
86 -0.000011984304069
87 0.000048533940184
88 0.0
89 0.000177317742315
90 0.0
91 0.000271604962799
92 0.000425454610608
93 0.001662374630787
94 0.000090910782960
95 0.0
96 -0.000118651676096
97 0.002000298629501
98 0.0
99 -0.003019939117011
100 0.000254690903098
101 0.000103389255436
102 -0.000358080158534
103 0.0
104 0.000378605672561
105 0.0
106 1.00287935076357
107 0.005485882592404
108 -0.004679801736616
109 0.002238865093645
110 0.0
111 0.002939640513544
112 0.001454298619610
113 0.0
114 -0.001363519103363
115 0.000650495450532
116 -0.000491588082576
117 -0.000158907367957
118 0.0
119 0.000756790613699
120 0.0
121 0.000005872024354
122 0.000051166784972
123 0.000004778422949
124 0.0
125 -0.000015566997173
126 0.000127434881181
127 0.000117569157327
128 0.000056954496134
129 0.0
130 0.000026430451775
131 0.000062435700827
132 0.000261446145540
133 0.000013791446451
134 0.0
135 0.000022233254808
136 -0.004306292137477
137 -0.000540189450195
138 0.002133232209950
139 0.0
140 0.000840273403035
 Sym=      2.1
 Ene=     -20.4926
 Spin= Alpha
 Occup=    2.000000
1 0.000306527403667
2 0.000689951207353
3 0.001116877624154
4 0.000203470265437
5 0.0
6 0.000331834218231
7 0.001792308975549
8 0.0
9 0.003658884442483
10 0.000111631529748
11 0.000226630533759
12 -0.000338262063507
13 0.0
14 -0.000605122018313
15 0.0
16 -0.000080067941459
17 -0.000181261875583
18 0.001739721590678
19 -0.000107278776305
20 0.0
21 0.000058186521551
22 -0.000135513831203
23 0.0
24 -0.001844100314833
25 -0.000078272550077
26 -0.000114723146038
27 0.000192995696115
28 0.0
29 -0.000418488207511
30 0.0
31 -0.000130523194391
32 -0.000289555305190
33 0.001017174183672
34 0.000091060983130
35 0.0
36 -0.000149539675144
37 -0.000825661661471
38 0.0
39 0.000217698136872
40 0.000200466587044
41 -0.000036123414885
42 -0.000164343172159
43 0.0
44 -0.000051451747394
45 0.0
46 -0.000006090194379
47 0.000005087037458
48 -0.001251916162074
49 -0.000014692055080
50 0.0
51 0.000009855031603
52 0.000094866834090
53 0.0
54 -0.000549087281463
55 -0.000134221235004
56 -0.000032326485473
57 0.000166547720477
58 0.0
59 -0.000045397754306
60 0.0
61 1.00143353278839
62 0.002329567145171
63 -0.006911423910096
64 -0.001195322492973
65 0.0
66 -0.001919297485080
67 0.000874995074723
68 0.0
69 0.001194266937770
70 0.000088022278565
71 -0.000242017612246
72 0.000153995333681
73 0.0
74 0.000078206122032
75 0.0
76 0.000004876884460
77 -0.000000375033042
78 -0.000297904091750
79 -0.000011474474771
80 0.0
81 0.000007920621529
82 0.000066267071548
83 0.0
84 -0.000129234585400
85 -0.000030171504589
86 0.000018743346429
87 0.000011428158160
88 0.0
89 0.000042866073616
90 0.0
91 -0.000114564277884
92 -0.000189421913213
93 0.000156245260324
94 0.000008981333418
95 0.0
96 -0.000017285974782
97 0.000011208010587
98 0.0
99 0.000486414108374
100 0.000106006868533
101 -0.000040157302833
102 -0.000065849565700
103 0.0
104 0.000084226351412
105 0.0
106 -0.000007274249356
107 -0.000017138748157
108 0.000154055584595
109 -0.000001389923414
110 0.0
111 0.000003955096385
112 -0.000174983771411
113 0.0
114 0.000030544241107
115 -0.000010733007906
116 0.000003055746922
117 0.000007677260984
118 0.0
119 -0.000026947837724
120 0.0
121 -0.000133217925895
122 0.000360559645260
123 -0.000059318908635
124 0.0
125 0.000186141491835
126 0.000033562222007
127 -0.000004591490100
128 0.000088575971444
129 0.0
130 -0.000063333503156
131 0.000154679623563
132 0.000112607767637
133 0.000051775240659
134 0.0
135 0.000010513929985
136 0.000039533753885
137 0.000189535126941
138 0.000012119561317
139 0.0
140 -0.000013434760881
 Sym=      3.1
 Ene=     -15.6457
 Spin= Alpha
 Occup=    2.000000
1 0.000051139222713
2 0.000032693809167
3 0.002365493470393
4 0.000050082163845
5 0.0
6 -0.000060683613610
7 0.001036936947329
8 0.0
9 -0.002997327261810
10 0.000012288418288
11 0.000010004558182
12 -0.000022292976470
13 0.0
14 0.000249652820249
15 0.0
16 -0.000000030484178
17 -0.000007539532703
18 -0.001377844310443
19 -0.000086122549430
20 0.0
21 0.000001932550920
22 0.000718374253807
23 0.0
24 0.002172518055601
25 0.000006068873254
26 -0.000056506710410
27 0.000050437837155
28 0.0
29 0.000058275619210
30 0.0
31 1.00203426196560
32 0.003702790915827
33 -0.010102266831058
34 0.000029736384216
35 0.0
36 -0.000337093099313
37 0.001893364436609
38 0.0
39 -0.000068108211636
40 0.000171538197144
41 -0.000076984847429
42 -0.000094553349715
43 0.0
44 0.000009415380444
45 0.0
46 -0.000057241494695
47 -0.000092682314056
48 0.002635002941334
49 -0.000005124788374
50 0.0
51 -0.000028325940404
52 0.000621069140417
53 0.0
54 0.000762375248852
55 0.000064888016998
56 -0.000081192746445
57 0.000016304729447
58 0.0
59 0.000004661434460
60 0.0
61 -0.000083376656513
62 -0.000161882760869
63 0.000451413637490
64 0.000032314433310
65 0.0
66 -0.000022543284955
67 -0.000386455423440
68 0.0
69 0.000365281417400
70 0.000065023771246
71 -0.000000290134465
72 -0.000064733636781
73 0.0
74 -0.000014912903463
75 0.0
76 -0.000453833297261
77 -0.000086312838902
78 -0.000245816865869
79 -0.000083220728413
80 0.0
81 0.000028702762010
82 0.000101844187091
83 0.0
84 -0.000762776004679
85 0.000001813638424
86 -0.000040557093203
87 0.000038743454778
88 0.0
89 -0.000064647904552
90 0.0
91 0.000088702023891
92 0.000069466168559
93 0.002503742971957
94 0.000057675593814
95 0.0
96 0.000086353904698
97 0.000974361603424
98 0.0
99 0.002224895573052
100 0.000057486451852
101 0.000067968849919
102 -0.000125455301772
103 0.0
104 -0.000392278311283
105 0.0
106 -0.000035843515380
107 -0.000096773764767
108 -0.000049211441338
109 0.000038812792404
110 0.0
111 -0.000057613117583
112 -0.000577044804056
113 0.0
114 -0.000424668826392
115 0.000049081702411
116 0.000026390334444
117 -0.000075472036855
118 0.0
119 -0.000042486866490
120 0.0
121 -0.000167268039830
122 -0.000363925820760
123 -0.000048926214732
124 0.0
125 -0.000063242131288
126 -0.000208175786875
127 -0.000070529015070
128 0.000586700353475
129 0.0
130 -0.000016218149557
131 -0.000120718072527
132 0.000094877302436
133 -0.000039827080905
134 0.0
135 -0.000038752707349
136 0.000233663021207
137 0.000116224063602
138 0.000049569340834
139 0.0
140 -0.000013459482033
 Sym=      4.1
 Ene=     -15.6221
 Spin= Alpha
 Occup=    2.000000
1 -0.000038072834148
2 -0.000070301418428
3 0.002214562856591
4 0.000040870099865
5 0.0
6 -0.000021231046221
7 -0.001056004525869
8 0.0
9 -0.000047040812330
10 0.000033164017933
11 -0.000045667358353
12 0.000012503340420
13 0.0
14 0.000039532279745
15 0.0
16 0.000063962647896
17 0.000102312355368
18 -0.002792360657141
19 0.000022282706827
20 0.0
21 0.000107610049733
22 -0.001752346206420
23 0.0
24 0.001188121795453
25 0.000162631953616
26 -0.000023219975561
27 -0.000139411978054
28 0.0
29 0.000036746487101
30 0.0
31 0.000336137090499
32 -0.000157707130751
33 0.000063088970082
34 0.000037660501152
35 0.0
36 0.000099175544142
37 0.000684390185502
38 0.0
39 -0.000551626555840
40 0.000020735857647
41 -0.000091783877722
42 0.000071048020075
43 0.0
44 -0.000074207093187
45 0.0
46 0.000088430582697
47 0.000055681216845
48 0.003410373146735
49 -0.000014611052162
50 0.0
51 -0.000026174284695
52 0.002596604928849
53 0.0
54 -0.000982869613131
55 0.000346515957095
56 0.000030752265535
57 -0.000377268222630
58 0.0
59 0.000341062056762
60 0.0
61 -0.000001338168391
62 -0.000005392604314
63 -0.000108816045819
64 -0.000009661611948
65 0.0
66 0.000028080771656
67 0.000187953208552
68 0.0
69 -0.000009854992223
70 -0.000003979562718
71 0.000000957002114
72 0.000003022560604
73 0.0
74 -0.000016746274138
75 0.0
76 1.00189646967289
77 0.003176097191867
78 -0.010311654642488
79 0.000840474451370
80 0.0
81 0.001167587097382
82 -0.001702730958352
83 0.0
84 -0.002032726951255
85 0.000102905430299
86 -0.000068435108891
87 -0.000034470321408
88 0.0
89 -0.000188018175432
90 0.0
91 0.000137964583300
92 0.000129508793562
93 0.002226275620441
94 -0.000106659492252
95 0.0
96 0.000044672729564
97 -0.003149372813353
98 0.0
99 0.000759143257799
100 -0.000445697831521
101 0.000144111525865
102 0.000301586305656
103 0.0
104 -0.000059451536727
105 0.0
106 -0.000056926999978
107 -0.000126454130698
108 0.000588691169886
109 0.000089782582819
110 0.0
111 -0.000112174793936
112 0.000458003499196
113 0.0
114 0.000297886337780
115 0.000020409605679
116 -0.000021694523578
117 0.000001284917899
118 0.0
119 0.000041595901955
120 0.0
121 -0.000059469210788
122 -0.000506088527141
123 0.000095339248270
124 0.0
125 -0.000009174515825
126 -0.000174599589039
127 0.000116241964021
128 -0.000004565926325
129 0.0
130 0.000002728725402
131 -0.000134622508777
132 0.000638325337909
133 -0.000188145316051
134 0.0
135 0.000142821264308
136 -0.000094084343775
137 0.000509462237235
138 -0.000033719707409
139 0.0
140 0.000244482468402
 Sym=      5.1
 Ene=     -11.3876
 Spin= Alpha
 Occup=    2.000000
1 -0.000326540110000
2 -0.000429767137041
3 0.002876038347804
4 -0.000019014804939
5 0.0
6 0.000033282331381
7 -0.002509689225322
8 0.0
9 -0.001278255193361
10 -0.000094152142477
11 -0.000180438651770
12 0.000274590794247
13 0.0
14 0.000148031695288
15 0.0
16 0.000190148461195
17 0.000325758113391
18 -0.006033562735382
19 -0.000000162402298
20 0.0
21 0.000049845547394
22 -0.001345171637059
23 0.0
24 0.002361985850849
25 0.000007213554538
26 0.000109690871369
27 -0.000116904425907
28 0.0
29 0.000084945791116