[Molden Format]
[Atoms] (AU)
C    1    6        -0.000000000000       0.000000000000      -0.000000000000
H    2    1         1.687916000000       0.000000000000       1.193537000000
H    3    1        -1.687916000000      -0.000000000000       1.193537000000
H    4    1        -0.000000000000       1.687916000000      -1.193537000000
H    5    1         0.000000000000      -1.687916000000      -1.193537000000
[GTO]
  1 0
 s    6  1.00
     4232.6100000000         0.0020290000
      634.8820000000         0.0155350000
      146.0970000000         0.0754110000
       42.4974000000         0.2571210000
       14.1892000000         0.5965550000
        1.9666000000         0.2425170000
 s    1  1.00
        5.1477000000         1.0000000000
 s    1  1.00
        0.4962000000         1.0000000000
 s    1  1.00
        0.1533000000         1.0000000000
 p    4  1.00
       18.1557000000         0.0185340000
        3.9864000000         0.1154420000
        1.1429000000         0.3862060000
        0.3594000000         0.6400890000
 p    1  1.00
        0.1146000000         1.0000000000
 d    1  1.00
        0.7500000000         1.0000000000

  2 0
 s    3  1.00
       19.2406000000         0.0328280000
        2.8992000000         0.2312080000
        0.6534000000         0.8172380000
 s    1  1.00
        0.1776000000         1.0000000000
 p    1  1.00
        1.0000000000         1.0000000000

  3 0
 s    3  1.00
       19.2406000000         0.0328280000
        2.8992000000         0.2312080000
        0.6534000000         0.8172380000
 s    1  1.00
        0.1776000000         1.0000000000
 p    1  1.00
        1.0000000000         1.0000000000

  4 0
 s    3  1.00
       19.2406000000         0.0328280000
        2.8992000000         0.2312080000
        0.6534000000         0.8172380000
 s    1  1.00
        0.1776000000         1.0000000000
 p    1  1.00
        1.0000000000         1.0000000000

  5 0
 s    3  1.00
       19.2406000000         0.0328280000
        2.8992000000         0.2312080000
        0.6534000000         0.8172380000
 s    1  1.00
        0.1776000000         1.0000000000
 p    1  1.00
        1.0000000000         1.0000000000

[5D]
[9G]

[MO]
 Sym= A1
 Ene= -1.15968721452207770e+01
 Spin= Alpha
 Occup=  1.00000000000000000e+00
  1  6.00837959528398580e-01
  2  4.37536041648481477e-01
  3  4.76484138665253174e-03
  4 -1.67563509737552472e-03
  5  0.00000000000000000e+00
  6  0.00000000000000000e+00
  7  7.45870250933657682e-04
  8  0.00000000000000000e+00
  9  0.00000000000000000e+00
 10 -4.34577254037235946e-05
 11  1.27855463581750666e-04
 12  0.00000000000000000e+00
 13  0.00000000000000000e+00
 14  4.12267224159131532e-06
 15  0.00000000000000000e+00
 16  2.27329643464446024e-04
 17  2.92432871596858348e-04
 18  1.24342361500417938e-05
 19  0.00000000000000000e+00
 20  4.57924363128518468e-06
 21  2.27329643464446024e-04
 22  2.92432871596858348e-04
 23 -1.24342361500417938e-05
 24  0.00000000000000000e+00
 25  4.57924363128518468e-06
 26  6.29558663695572247e-04
 27  4.91407953016402685e-04
 28  0.00000000000000000e+00
 29 -2.59158143593258758e-04
 30  1.48285620805106927e-04
 31  6.29558663695572247e-04
 32  4.91407953016402685e-04
 33  0.00000000000000000e+00
 34  2.59158143593258758e-04
 35  1.48285620805106927e-04
 Sym= A1
 Ene= -1.29573778936635353e+00
 Spin= Alpha
 Occup=  1.00000000000000000e+00
  1  1.23502898173475317e-01
  2  1.65060670584051189e-01
  3 -4.56198360251458879e-01
  4 -3.88904955586827361e-01
  5  0.00000000000000000e+00
  6  0.00000000000000000e+00
  7 -2.76919505904146233e-02
  8  0.00000000000000000e+00
  9  0.00000000000000000e+00
 10 -9.30694803090822281e-03
 11 -1.77558564006473308e-03
 12  0.00000000000000000e+00
 13  0.00000000000000000e+00
 14  5.71201807236368158e-04
 15  0.00000000000000000e+00
 16 -1.44651124077646825e-01
 17 -6.72645140937519828e-03
 18  1.54115915046227729e-02
 19  0.00000000000000000e+00
 20  9.61687102587138395e-03
 21 -1.44651124077646825e-01
 22 -6.72645140937519828e-03
 23 -1.54115915046227729e-02
 24  0.00000000000000000e+00
 25  9.61687102587138395e-03
 26 -1.28321781572986543e-01
 27 -9.59379175442071075e-03
 28  0.00000000000000000e+00
 29  1.25264138295319745e-02
 30 -9.28232428699244348e-03
 31 -1.28321781572986543e-01
 32 -9.59379175442071075e-03
 33  0.00000000000000000e+00
 34 -1.25264138295319745e-02
 35 -9.28232428699244348e-03
 Sym= A1
 Ene= -9.01742051018306512e-01
 Spin= Alpha
 Occup=  1.00000000000000000e+00
  1  6.62223395153247428e-03
  2  9.02352289974738160e-03
  3 -2.42215535382121414e-02
  4 -4.60747564451432154e-02
  5  0.00000000000000000e+00
  6  0.00000000000000000e+00
  7  5.67595946482410074e-01
  8  0.00000000000000000e+00
  9  0.00000000000000000e+00
 10  9.83027181619890167e-02
 11  8.42510317471179514e-03
 12  0.00000000000000000e+00
 13  0.00000000000000000e+00
 14  2.75496651383260634e-02
 15  0.00000000000000000e+00
 16  1.70036219843066189e-01
 17  1.16570632670795149e-01
 18 -1.44535059979032793e-02
 19  0.00000000000000000e+00
 20 -8.24882317413617940e-04
 21  1.70036219843066189e-01
 22  1.16570632670795149e-01
 23  1.44535059979032793e-02
 24  0.00000000000000000e+00
 25 -8.24882317413617940e-04
 26 -1.65980053175496189e-01
 27 -1.03947665091671027e-01
 28  0.00000000000000000e+00
 29  1.23267352852143453e-02
 30 -2.84401312390700385e-03
 31 -1.65980053175496189e-01
 32 -1.03947665091671027e-01
 33  0.00000000000000000e+00
 34 -1.23267352852143453e-02
 35 -2.84401312390700385e-03
 Sym= B2
 Ene= -8.90035106126021214e-01
 Spin= Alpha
 Occup=  1.00000000000000000e+00
  1  0.00000000000000000e+00
  2  0.00000000000000000e+00
  3  0.00000000000000000e+00
  4  0.00000000000000000e+00
  5  0.00000000000000000e+00
  6  5.81698458549597897e-01
  7  0.00000000000000000e+00
  8  0.00000000000000000e+00
  9  1.14050318478516044e-01
 10  0.00000000000000000e+00
 11  0.00000000000000000e+00
 12  0.00000000000000000e+00
 13 -2.55658259187620460e-02
 14  0.00000000000000000e+00
 15  0.00000000000000000e+00
 16  0.00000000000000000e+00
 17  0.00000000000000000e+00
 18  0.00000000000000000e+00
 19  1.01326207234946133e-02
 20  0.00000000000000000e+00
 21  0.00000000000000000e+00
 22  0.00000000000000000e+00
 23  0.00000000000000000e+00
 24  1.01326207234946133e-02
 25  0.00000000000000000e+00
 26  2.25810108128187331e-01
 27  1.44699783279381017e-01
 28  0.00000000000000000e+00
 29 -9.92047581984454273e-03
 30  1.30161068373978606e-02
 31 -2.25810108128187331e-01
 32 -1.44699783279381017e-01
 33  0.00000000000000000e+00
 34 -9.92047581984454273e-03
 35 -1.30161068373978606e-02
 Sym= B1
 Ene= -7.18858410228829570e-01
 Spin= Alpha
 Occup=  1.00000000000000000e+00
  1  0.00000000000000000e+00
  2  0.00000000000000000e+00
  3  0.00000000000000000e+00
  4  0.00000000000000000e+00
  5  5.48595856388409131e-01
  6  0.00000000000000000e+00
  7  0.00000000000000000e+00
  8  5.31628824629149024e-02
  9  0.00000000000000000e+00
 10  0.00000000000000000e+00
 11  0.00000000000000000e+00
 12  3.88427986075933346e-02
 13  0.00000000000000000e+00
 14  0.00000000000000000e+00
 15  0.00000000000000000e+00
 16  2.67003947445488332e-01
 17  1.71141153943662416e-01
 18 -1.12323798647155863e-02
 19  0.00000000000000000e+00
 20 -1.92368062020201597e-02
 21 -2.67003947445488332e-01
 22 -1.71141153943662416e-01
 23 -1.12323798647155863e-02
 24  0.00000000000000000e+00
 25  1.92368062020201597e-02
 26  0.00000000000000000e+00
 27  0.00000000000000000e+00
 28  4.42671679535313473e-03
 29  0.00000000000000000e+00
 30  0.00000000000000000e+00
 31  0.00000000000000000e+00
 32  0.00000000000000000e+00
 33  4.42671679535313473e-03
 34  0.00000000000000000e+00
 35  0.00000000000000000e+00
 Sym= A1
 Ene=  9.45906104728652143e-03
 Spin= Alpha
 Occup=  0.00000000000000000e+00
  1  8.08564386551748199e-02
  2  1.15348258030530004e-01
  3 -3.06928333275592713e-01
  4 -2.80556978340859775e+00
  5  0.00000000000000000e+00
  6  0.00000000000000000e+00
  7 -1.57051557426145988e-01
  8  0.00000000000000000e+00
  9  0.00000000000000000e+00
 10 -5.39851291849932635e-01
 11  4.63499730133713013e-04
 12  0.00000000000000000e+00
 13  0.00000000000000000e+00
 14  1.36366168780563280e-02
 15  0.00000000000000000e+00
 16  3.34127604687235527e-02
 17  1.52154762545337019e+00
 18  9.11482488910058189e-03
 19  0.00000000000000000e+00
 20 -3.62325032720531336e-03
 21  3.34127604687235527e-02
 22  1.52154762545337019e+00
 23 -9.11482488910058189e-03
 24  0.00000000000000000e+00
 25 -3.62325032720531336e-03
 26 -1.27510463565003816e-02
 27  7.40215852054707191e-01
 28  0.00000000000000000e+00
 29 -6.33634783440270230e-03
 30 -1.58819004838191237e-03
 31 -1.27510463565003816e-02
 32  7.40215852054707191e-01
 33  0.00000000000000000e+00
 34  6.33634783440270230e-03
 35 -1.58819004838191237e-03
 Sym= B1
 Ene=  3.19120986599977785e-02
 Spin= Alpha
 Occup=  0.00000000000000000e+00
  1  0.00000000000000000e+00
  2  0.00000000000000000e+00
  3  0.00000000000000000e+00
  4  0.00000000000000000e+00
  5  2.06444199592746624e-01
  6  0.00000000000000000e+00
  7  0.00000000000000000e+00
  8  1.86638164690215214e+00
  9  0.00000000000000000e+00
 10  0.00000000000000000e+00
 11  0.00000000000000000e+00
 12 -4.68482780238359472e-02
 13  0.00000000000000000e+00
 14  0.00000000000000000e+00
 15  0.00000000000000000e+00
 16 -1.23690177961339562e-01
 17 -1.52708518753003419e+00
 18  6.04945017354037006e-03
 19  0.00000000000000000e+00
 20 -1.02497225996069728e-02
 21  1.23690177961339562e-01
 22  1.52708518753003419e+00
 23  6.04945017354037006e-03
 24  0.00000000000000000e+00
 25  1.02497225996069728e-02
 26  0.00000000000000000e+00
 27  0.00000000000000000e+00
 28  1.47303042306859578e-02
 29  0.00000000000000000e+00
 30  0.00000000000000000e+00
 31  0.00000000000000000e+00
 32  0.00000000000000000e+00
 33  1.47303042306859578e-02
 34  0.00000000000000000e+00
 35  0.00000000000000000e+00
 Sym= B2
 Ene=  3.61093028806943189e-02
 Spin= Alpha
 Occup=  0.00000000000000000e+00
  1  0.00000000000000000e+00
  2  0.00000000000000000e+00
  3  0.00000000000000000e+00
  4  0.00000000000000000e+00
  5  0.00000000000000000e+00
  6  1.29690591846599479e-01
  7  0.00000000000000000e+00
  8  0.00000000000000000e+00
  9  1.90064913291737758e+00
 10  0.00000000000000000e+00
 11  0.00000000000000000e+00
 12  0.00000000000000000e+00
 13  5.03876524284972427e-02
 14  0.00000000000000000e+00
 15  0.00000000000000000e+00
 16  0.00000000000000000e+00
 17  0.00000000000000000e+00
 18  0.00000000000000000e+00
 19  2.13021361688041991e-02
 20  0.00000000000000000e+00
 21  0.00000000000000000e+00
 22  0.00000000000000000e+00
 23  0.00000000000000000e+00
 24  2.13021361688041991e-02
 25  0.00000000000000000e+00
 26 -1.23956304248745819e-01
 27 -1.54092301927301989e+00
 28  0.00000000000000000e+00
 29  8.84616491716413121e-03
 30  1.78584196354623762e-03
 31  1.23956304248745819e-01
 32  1.54092301927301989e+00
 33  0.00000000000000000e+00
 34  8.84616491716413121e-03
 35 -1.78584196354623762e-03
 Sym= A1
 Ene=  3.83152890941609731e-02
 Spin= Alpha
 Occup=  0.00000000000000000e+00
  1  2.77588980543196709e-02
  2  3.98961362581573623e-02
  3 -1.10623237001273023e-01
  4 -9.61750041880703233e-01
  5  0.00000000000000000e+00
  6  0.00000000000000000e+00
  7  1.34501458381748012e-01
  8  0.00000000000000000e+00
  9  0.00000000000000000e+00
 10  1.79464917783250244e+00
 11  2.45100798514305118e-03
 12  0.00000000000000000e+00
 13  0.00000000000000000e+00
 14 -4.63792287253085161e-02
 15  0.00000000000000000e+00
 16 -9.21837316777168597e-02
 17 -6.30107478688471168e-01
 18 -8.17059805152875115e-03
 19  0.00000000000000000e+00
 20  1.53196031279221687e-02
 21 -9.21837316777168597e-02
 22 -6.30107478688471168e-01
 23  8.17059805152875115e-03
 24  0.00000000000000000e+00
 25  1.53196031279221687e-02
 26  7.58298446048234487e-02
 27  1.41954218617884731e+00
 28  0.00000000000000000e+00
 29  2.25792328743929047e-03
 30  1.15089898817290464e-02
 31  7.58298446048234487e-02
 32  1.41954218617884731e+00
 33  0.00000000000000000e+00
 34 -2.25792328743929047e-03
 35  1.15089898817290464e-02
 Sym= B1
 Ene=  1.68133417419221332e-01
 Spin= Alpha
 Occup=  0.00000000000000000e+00
  1  0.00000000000000000e+00
  2  0.00000000000000000e+00
  3  0.00000000000000000e+00
  4  0.00000000000000000e+00
  5  8.85160028847577718e-01
  6  0.00000000000000000e+00
  7  0.00000000000000000e+00
  8 -6.92172027803139134e-01
  9  0.00000000000000000e+00
 10  0.00000000000000000e+00
 11  0.00000000000000000e+00
 12 -2.40803112927952465e-02
 13  0.00000000000000000e+00
 14  0.00000000000000000e+00
 15  0.00000000000000000e+00
 16  5.87910114458717326e-02
 17 -4.18394430586357780e-01
 18 -3.32836276266178302e-02
 19  0.00000000000000000e+00
 20 -3.85845678212079490e-02
 21 -5.87910114458717326e-02
 22  4.18394430586357780e-01
 23 -3.32836276266178302e-02
 24  0.00000000000000000e+00
 25  3.85845678212079490e-02
 26  0.00000000000000000e+00
 27  0.00000000000000000e+00
 28  2.10931363829390296e-02
 29  0.00000000000000000e+00
 30  0.00000000000000000e+00
 31  0.00000000000000000e+00
 32  0.00000000000000000e+00
 33  2.10931363829390296e-02
 34  0.00000000000000000e+00
 35  0.00000000000000000e+00
 Sym= A1
 Ene=  1.70608860712109123e-01
 Spin= Alpha
 Occup=  0.00000000000000000e+00
  1  9.60578234992226498e-03
  2  1.36776223999700436e-02
  3 -2.78996193096153408e-02
  4 -3.95139744586624764e-01
  5  0.00000000000000000e+00
  6  0.00000000000000000e+00
  7  8.90091251781840676e-01
  8  0.00000000000000000e+00
  9  0.00000000000000000e+00
 10 -7.05137842628453582e-01
 11  6.41245177106038785e-03
 12  0.00000000000000000e+00
 13  0.00000000000000000e+00
 14 -3.06289701225356641e-02
 15  0.00000000000000000e+00
 16  3.32248158692543746e-02
 17 -1.24780905918895221e-01
 18 -3.96669349405244578e-02
 19  0.00000000000000000e+00
 20 -5.62907707072316747e-03
 21  3.32248158692543746e-02
 22 -1.24780905918895221e-01
 23  3.96669349405244578e-02
 24  0.00000000000000000e+00
 25 -5.62907707072316747e-03
 26 -3.44061105416988006e-02
 27  4.30150441241717307e-01
 28  0.00000000000000000e+00
 29  3.42745761006459926e-02
 30 -2.78193406757744951e-03
 31 -3.44061105416988006e-02
 32  4.30150441241717307e-01
 33  0.00000000000000000e+00
 34 -3.42745761006459926e-02
 35 -2.78193406757744951e-03
 Sym= B2
 Ene=  1.75881331272229380e-01
 Spin= Alpha
 Occup=  0.00000000000000000e+00
  1  0.00000000000000000e+00
  2  0.00000000000000000e+00
  3  0.00000000000000000e+00
  4  0.00000000000000000e+00
  5  0.00000000000000000e+00
  6  9.05735608741254583e-01
  7  0.00000000000000000e+00
  8  0.00000000000000000e+00
  9 -6.45888489327688942e-01
 10  0.00000000000000000e+00
 11  0.00000000000000000e+00
 12  0.00000000000000000e+00
 13  4.04316204873980886e-02
 14  0.00000000000000000e+00
 15  0.00000000000000000e+00
 16  0.00000000000000000e+00
 17  0.00000000000000000e+00
 18  0.00000000000000000e+00
 19  2.42991647936917042e-02
 20  0.00000000000000000e+00
 21  0.00000000000000000e+00
 22  0.00000000000000000e+00
 23  0.00000000000000000e+00
 24  2.42991647936917042e-02
 25  0.00000000000000000e+00
 26  3.55863697812790550e-02
 27 -4.44156145933798152e-01
 28  0.00000000000000000e+00
 29 -2.78311454843713571e-02
 30  3.53154244997954739e-02
 31 -3.55863697812790550e-02
 32  4.44156145933798152e-01
 33  0.00000000000000000e+00
 34 -2.78311454843713571e-02
 35 -3.53154244997954739e-02
 Sym= A1
 Ene=  7.29597162678760847e-01
 Spin= Alpha
 Occup=  0.00000000000000000e+00
  1  1.11524947922092194e-01
  2  2.03010081008096505e-01
  3 -2.11924739399928974e+00
  4  6.13264835196240554e+00
  5  0.00000000000000000e+00
  6  0.00000000000000000e+00
  7  1.36052002200942584e-02
  8  0.00000000000000000e+00
  9  0.00000000000000000e+00
 10 -5.10746636864845213e-02
 11 -9.03730131816934045e-04
 12  0.00000000000000000e+00
 13  0.00000000000000000e+00
 14 -1.16687216610930952e-02
 15  0.00000000000000000e+00
 16 -2.38363429399887722e-01
 17 -1.36581317535320523e+00
 18  3.68213299886616940e-02
 19  0.00000000000000000e+00
 20  2.70305190670857426e-02
 21 -2.38363429399887722e-01
 22 -1.36581317535320523e+00
 23 -3.68213299886616940e-02
 24  0.00000000000000000e+00
 25  2.70305190670857426e-02
 26 -2.09583707333610397e-01
 27 -1.44805992374475379e+00
 28  0.00000000000000000e+00
 29  4.31952253343386577e-02
 30 -2.82786326933974000e-02
 31 -2.09583707333610397e-01
 32 -1.44805992374475379e+00
 33  0.00000000000000000e+00
 34 -4.31952253343386577e-02
 35 -2.82786326933974000e-02
 Sym= A1
 Ene=  8.79945776029198989e-01
 Spin= Alpha
 Occup=  0.00000000000000000e+00
  1  6.68439062091918251e-02
  2  9.70751469595994287e-02
  3 -5.84478372594094520e-01
  4  1.48193918288897808e+00
  5  0.00000000000000000e+00
  6  0.00000000000000000e+00
  7 -2.26761150780723786e-01
  8  0.00000000000000000e+00
  9  0.00000000000000000e+00
 10  9.28424510366894884e-01
 11 -1.27096487977601050e-02
 12  0.00000000000000000e+00
 13  0.00000000000000000e+00
 14  2.54431511807120425e-01
 15  0.00000000000000000e+00
 16  8.66908329076589546e-01
 17 -1.53023896221277855e+00
 18  1.17982516986953279e-01
 19  0.00000000000000000e+00
 20  2.21732043226800686e-02
 21  8.66908329076589546e-01
 22 -1.53023896221277855e+00
 23 -1.17982516986953279e-01
 24  0.00000000000000000e+00
 25  2.21732043226800686e-02
 26  4.90705112506757066e-02
 27  2.72645153494406989e-01
 28  0.00000000000000000e+00
 29  1.14774703164076354e-03
 30 -4.42251733310881009e-02
 31  4.90705112506757066e-02
 32  2.72645153494406989e-01
 33  0.00000000000000000e+00
 34 -1.14774703164076354e-03
 35 -4.42251733310881009e-02
 Sym= B1
 Ene=  8.87195511856628927e-01
 Spin= Alpha
 Occup=  0.00000000000000000e+00
  1  0.00000000000000000e+00
  2  0.00000000000000000e+00
  3  0.00000000000000000e+00
  4  0.00000000000000000e+00
  5  3.56940788902872230e-01
  6  0.00000000000000000e+00
  7  0.00000000000000000e+00
  8 -1.32085350329400808e+00
  9  0.00000000000000000e+00
 10  0.00000000000000000e+00
 11  0.00000000000000000e+00
 12 -3.70123548443989980e-01
 13  0.00000000000000000e+00
 14  0.00000000000000000e+00
 15  0.00000000000000000e+00
 16 -8.14406539889468983e-01
 17  1.79387430712614715e+00
 18 -3.85671023675806871e-02
 19  0.00000000000000000e+00
 20 -8.19390733537548877e-02
 21  8.14406539889468983e-01
 22 -1.79387430712614715e+00
 23 -3.85671023675806871e-02
 24  0.00000000000000000e+00
 25  8.19390733537548877e-02
 26  0.00000000000000000e+00
 27  0.00000000000000000e+00
 28  7.02386660256027057e-02
 29  0.00000000000000000e+00
 30  0.00000000000000000e+00
 31  0.00000000000000000e+00
 32  0.00000000000000000e+00
 33  7.02386660256027057e-02
 34  0.00000000000000000e+00
 35  0.00000000000000000e+00
 Sym= B2
 Ene=  9.34498861889103916e-01
 Spin= Alpha
 Occup=  0.00000000000000000e+00
  1  0.00000000000000000e+00
  2  0.00000000000000000e+00
  3  0.00000000000000000e+00
  4  0.00000000000000000e+00
  5  0.00000000000000000e+00
  6  2.93837580828583578e-01
  7  0.00000000000000000e+00
  8  0.00000000000000000e+00
  9 -1.29463933425933275e+00
 10  0.00000000000000000e+00
 11  0.00000000000000000e+00
 12  0.00000000000000000e+00
 13  4.00904927449428683e-01
 14  0.00000000000000000e+00
 15  0.00000000000000000e+00
 16  0.00000000000000000e+00
 17  0.00000000000000000e+00
 18  0.00000000000000000e+00
 19  8.68689802563224894e-02
 20  0.00000000000000000e+00
 21  0.00000000000000000e+00
 22  0.00000000000000000e+00
 23  0.00000000000000000e+00
 24  8.68689802563224894e-02
 25  0.00000000000000000e+00
 26 -7.99198250580568592e-01
 27  1.77555327189627943e+00
 28  0.00000000000000000e+00
 29 -3.98573538404215361e-02
 30  7.86900720540885390e-02
 31  7.99198250580568592e-01
 32 -1.77555327189627943e+00
 33  0.00000000000000000e+00
 34 -3.98573538404215361e-02
 35 -7.86900720540885390e-02
 Sym= A1
 Ene=  9.41275696302750320e-01
 Spin= Alpha
 Occup=  0.00000000000000000e+00
  1  5.99538114699051661e-02
  2  8.52394879523693666e-02
  3 -4.83845741158537290e-01
  4  1.25479718317254552e+00
  5  0.00000000000000000e+00
  6  0.00000000000000000e+00
  7  2.21398217517346535e-01
  8  0.00000000000000000e+00
  9  0.00000000000000000e+00
 10 -9.10782881417766643e-01
 11  2.83955090506824923e-02
 12  0.00000000000000000e+00
 13  0.00000000000000000e+00
 14 -2.93169396544935124e-01
 15  0.00000000000000000e+00
 16  6.08181918267547972e-02
 17  2.97495213217437882e-01
 18 -7.03112950086969262e-03
 19  0.00000000000000000e+00
 20  6.76477608164007677e-02
 21  6.08181918267547972e-02
 22  2.97495213217437882e-01
 23  7.03112950086969262e-03
 24  0.00000000000000000e+00
 25  6.76477608164007677e-02
 26  8.55776994447078887e-01
 27 -1.45203024950107262e+00
 28  0.00000000000000000e+00
 29  1.09440855734598330e-01
 30 -2.95207411552571158e-02
 31  8.55776994447078887e-01
 32 -1.45203024950107262e+00
 33  0.00000000000000000e+00
 34 -1.09440855734598330e-01
 35 -2.95207411552571158e-02
 Sym= A2
 Ene=  1.13502800377027291e+00
 Spin= Alpha
 Occup=  0.00000000000000000e+00
  1  0.00000000000000000e+00
  2  0.00000000000000000e+00
  3  0.00000000000000000e+00
  4  0.00000000000000000e+00
  5  0.00000000000000000e+00
  6  0.00000000000000000e+00
  7  0.00000000000000000e+00
  8  0.00000000000000000e+00
  9  0.00000000000000000e+00
 10  0.00000000000000000e+00
 11  0.00000000000000000e+00
 12  0.00000000000000000e+00
 13  0.00000000000000000e+00
 14  0.00000000000000000e+00
 15  6.28938128959760867e-01
 16  0.00000000000000000e+00
 17  0.00000000000000000e+00
 18  0.00000000000000000e+00
 19  2.80939382293487416e-01
 20  0.00000000000000000e+00
 21  0.00000000000000000e+00
 22  0.00000000000000000e+00
 23  0.00000000000000000e+00
 24 -2.80939382293487416e-01
 25  0.00000000000000000e+00
 26  0.00000000000000000e+00
 27  0.00000000000000000e+00
 28  2.30965110888232850e-01
 29  0.00000000000000000e+00
 30  0.00000000000000000e+00
 31  0.00000000000000000e+00
 32  0.00000000000000000e+00
 33 -2.30965110888232850e-01
 34  0.00000000000000000e+00
 35  0.00000000000000000e+00
 Sym= A1
 Ene=  1.13589000378476257e+00
 Spin= Alpha
 Occup=  0.00000000000000000e+00
  1 -9.27296415906033226e-04
  2 -9.48190206016514951e-04
  3  3.45039162556518052e-03
  4 -5.04117656221925430e-03
  5  0.00000000000000000e+00
  6  0.00000000000000000e+00
  7 -3.91240037023585091e-02
  8  0.00000000000000000e+00
  9  0.00000000000000000e+00
 10  3.59336564387724780e-02
 11  6.25962229599780207e-01
 12  0.00000000000000000e+00
 13  0.00000000000000000e+00
 14  1.55513186361630317e-02
 15  0.00000000000000000e+00
 16  2.47755855806895998e-02
 17 -4.40181768822857922e-02
 18 -1.52376269312374246e-01
 19  0.00000000000000000e+00
 20  2.24408994702143427e-01
 21  2.47755855806895998e-02
 22 -4.40181768822857922e-02
 23  1.52376269312374246e-01
 24  0.00000000000000000e+00
 25  2.24408994702143427e-01
 26 -4.43682220258622903e-02
 27  5.60740861421114359e-02
 28  0.00000000000000000e+00
 29 -1.46223099902862169e-01
 30 -1.94250770544524970e-01
 31 -4.43682220258622903e-02
 32  5.60740861421114359e-02
 33  0.00000000000000000e+00
 34  1.46223099902862169e-01
 35 -1.94250770544524970e-01
 Sym= B1
 Ene=  1.76177451341059332e+00
 Spin= Alpha
 Occup=  0.00000000000000000e+00
  1  0.00000000000000000e+00
  2  0.00000000000000000e+00
  3  0.00000000000000000e+00
  4  0.00000000000000000e+00
  5  6.50122761040696912e-02
  6  0.00000000000000000e+00
  7  0.00000000000000000e+00
  8  7.38483658536925741e-02
  9  0.00000000000000000e+00
 10  0.00000000000000000e+00
 11  0.00000000000000000e+00
 12  1.46426473654230199e-01
 13  0.00000000000000000e+00
 14  0.00000000000000000e+00
 15  0.00000000000000000e+00
 16 -1.81896702369229307e-01
 17  1.07953698487043240e-01
 18 -4.59106738212384069e-01
 19  0.00000000000000000e+00
 20  4.86481244424913473e-01
 21  1.81896702369229307e-01
 22 -1.07953698487043240e-01
 23 -4.59106738212384069e-01
 24  0.00000000000000000e+00
 25 -4.86481244424913473e-01
 26  0.00000000000000000e+00
 27  0.00000000000000000e+00
 28  1.98019852996021706e-01
 29  0.00000000000000000e+00
 30  0.00000000000000000e+00
 31  0.00000000000000000e+00
 32  0.00000000000000000e+00
 33  1.98019852996021706e-01
 34  0.00000000000000000e+00
 35  0.00000000000000000e+00
 Sym= A2
 Ene=  1.79557812798113825e+00
 Spin= Alpha
 Occup=  0.00000000000000000e+00
  1  0.00000000000000000e+00
  2  0.00000000000000000e+00
  3  0.00000000000000000e+00
  4  0.00000000000000000e+00
  5  0.00000000000000000e+00
  6  0.00000000000000000e+00
  7  0.00000000000000000e+00
  8  0.00000000000000000e+00
  9  0.00000000000000000e+00
 10  0.00000000000000000e+00
 11  0.00000000000000000e+00
 12  0.00000000000000000e+00
 13  0.00000000000000000e+00
 14  0.00000000000000000e+00
 15  6.72688283031397105e-02
 16  0.00000000000000000e+00
 17  0.00000000000000000e+00
 18  0.00000000000000000e+00
 19 -5.11207922612865295e-01
 20  0.00000000000000000e+00
 21  0.00000000000000000e+00
 22  0.00000000000000000e+00
 23  0.00000000000000000e+00
 24  5.11207922612865295e-01
 25  0.00000000000000000e+00
 26  0.00000000000000000e+00
 27  0.00000000000000000e+00
 28  4.98294026203912777e-01
 29  0.00000000000000000e+00
 30  0.00000000000000000e+00
 31  0.00000000000000000e+00
 32  0.00000000000000000e+00
 33 -4.98294026203912777e-01
 34  0.00000000000000000e+00
 35  0.00000000000000000e+00
 Sym= B2
 Ene=  1.80622836395532604e+00
 Spin= Alpha
 Occup=  0.00000000000000000e+00
  1  0.00000000000000000e+00
  2  0.00000000000000000e+00
  3  0.00000000000000000e+00
  4  0.00000000000000000e+00
  5  0.00000000000000000e+00
  6  1.10071726888248816e-01
  7  0.00000000000000000e+00
  8  0.00000000000000000e+00
  9  9.85365203677522478e-02
 10  0.00000000000000000e+00
 11  0.00000000000000000e+00
 12  0.00000000000000000e+00
 13 -1.95972364856038694e-01
 14  0.00000000000000000e+00
 15  0.00000000000000000e+00
 16  0.00000000000000000e+00
 17  0.00000000000000000e+00
 18  0.00000000000000000e+00
 19 -5.17821803444930673e-01
 20  0.00000000000000000e+00
 21  0.00000000000000000e+00
 22  0.00000000000000000e+00
 23  0.00000000000000000e+00
 24 -5.17821803444930673e-01
 25  0.00000000000000000e+00
 26 -2.78603989207307390e-01
 27  1.63982146961918512e-01
 28  0.00000000000000000e+00
 29  1.37589881577015821e-01
 30  4.18368419688275262e-01
 31  2.78603989207307390e-01
 32 -1.63982146961918512e-01
 33  0.00000000000000000e+00
 34  1.37589881577015821e-01
 35 -4.18368419688275262e-01
 Sym= B1
 Ene=  1.82969930560966731e+00
 Spin= Alpha
 Occup=  0.00000000000000000e+00
  1  0.00000000000000000e+00
  2  0.00000000000000000e+00
  3  0.00000000000000000e+00
  4  0.00000000000000000e+00
  5  9.25613787150149497e-02
  6  0.00000000000000000e+00
  7  0.00000000000000000e+00
  8  1.28937823677361757e-01
  9  0.00000000000000000e+00
 10  0.00000000000000000e+00
 11  0.00000000000000000e+00
 12  4.95742346874161188e-01
 13  0.00000000000000000e+00
 14  0.00000000000000000e+00
 15  0.00000000000000000e+00
 16 -5.27523102156333357e-01
 17  3.74765824587460994e-01
 18 -2.23910055070523861e-01
 19  0.00000000000000000e+00
 20 -2.04340087596536935e-01
 21  5.27523102156333357e-01
 22 -3.74765824587460994e-01
 23 -2.23910055070523861e-01
 24  0.00000000000000000e+00
 25  2.04340087596536935e-01
 26  0.00000000000000000e+00
 27  0.00000000000000000e+00
 28 -4.15555548571872491e-01
 29  0.00000000000000000e+00
 30  0.00000000000000000e+00
 31  0.00000000000000000e+00
 32  0.00000000000000000e+00
 33 -4.15555548571872491e-01
 34  0.00000000000000000e+00
 35  0.00000000000000000e+00
 Sym= A1
 Ene=  1.83699919507239384e+00
 Spin= Alpha
 Occup=  0.00000000000000000e+00
  1  4.83561791931071908e-03
  2  7.16298974757627153e-03
  3 -3.78228277997649659e-02
  4 -2.84964163041102761e-03
  5  0.00000000000000000e+00
  6  0.00000000000000000e+00
  7  1.44910515101175197e-01
  8  0.00000000000000000e+00
  9  0.00000000000000000e+00
 10  1.51524017330305155e-01
 11  3.84372531262235084e-02
 12  0.00000000000000000e+00
 13  0.00000000000000000e+00
 14  4.97682064331423202e-01
 15  0.00000000000000000e+00
 16 -3.82434948670264785e-01
 17  2.69401909621189983e-01
 18 -1.77981955534084677e-02
 19  0.00000000000000000e+00
 20 -3.59563352896855593e-01
 21 -3.82434948670264785e-01
 22  2.69401909621189983e-01
 23  1.77981955534084677e-02
 24  0.00000000000000000e+00
 25 -3.59563352896855593e-01
 26  4.28049381704795506e-01
 27 -2.78554305443855399e-01
 28  0.00000000000000000e+00
 29  4.25172097581388766e-03
 30 -3.42944785021578047e-01
 31  4.28049381704795506e-01
 32 -2.78554305443855399e-01
 33  0.00000000000000000e+00
 34 -4.25172097581388766e-03
 35 -3.42944785021578047e-01
 Sym= B2
 Ene=  1.86860283645998315e+00
 Spin= Alpha
 Occup=  0.00000000000000000e+00
  1  0.00000000000000000e+00
  2  0.00000000000000000e+00
  3  0.00000000000000000e+00
  4  0.00000000000000000e+00
  5  0.00000000000000000e+00
  6  1.47288523312819108e-01
  7  0.00000000000000000e+00
  8  0.00000000000000000e+00
  9  1.29313301032446010e-01
 10  0.00000000000000000e+00
 11  0.00000000000000000e+00
 12  0.00000000000000000e+00
 13 -4.32836299961122772e-01
 14  0.00000000000000000e+00
 15  0.00000000000000000e+00
 16  0.00000000000000000e+00
 17  0.00000000000000000e+00
 18  0.00000000000000000e+00
 19 -1.33072600076316910e-01
 20  0.00000000000000000e+00
 21  0.00000000000000000e+00
 22  0.00000000000000000e+00
 23  0.00000000000000000e+00
 24 -1.33072600076316910e-01
 25  0.00000000000000000e+00
 26 -5.09078353666092775e-01
 27  3.38214750840897582e-01
 28  0.00000000000000000e+00
 29 -4.82813425050542477e-01
 30 -2.44906060605849768e-01
 31  5.09078353666092775e-01
 32 -3.38214750840897582e-01
 33  0.00000000000000000e+00
 34 -4.82813425050542477e-01
 35  2.44906060605849768e-01
 Sym= A1
 Ene=  2.39419739186347513e+00
 Spin= Alpha
 Occup=  0.00000000000000000e+00
  1  4.15697810805743580e-03
  2  6.34391626432389069e-03
  3 -3.40273601980001228e-02
  4 -3.79085382463900597e-02
  5  0.00000000000000000e+00
  6  0.00000000000000000e+00