[Molden Format]
[Molpro variables]
_NUMVAR=  811.0000000000000    
_AVOGAD= 0.6022136736000000E+24
_BOLTZ= 0.1380658000000000E-22
_CLIGHT=  29979245800.00000    
_EV2006= 0.3674930886769165E-01
_EV= 0.3674932534394180E-01
_ENULL= 0.8854187817000000E-11
_KJOULE= 0.3808798324128737E-03
_KJOULE/MOL= 0.3808798324128737E-03
_CM= 0.4556335267302901E-05
_CM-1= 0.4556335267302901E-05
_DEB2SI= 0.3335641000000000E-29
_AMU2AU=  1822.888390000000    
_KCAL= 0.1593601117815568E-02
_KCAL/MOL= 0.1593601117815568E-02
_KELVIN2006= 0.3166828861084835E-05
_KELVIN= 0.3166814820820034E-05
_JOULE= 0.4359748200000000E-17
_HERTZ2006= 0.1519829850815779E-15
_HERTZ= 0.1519829846011223E-15
_HZ2006= 0.1519829850815779E-15
_HZ= 0.1519829846011223E-15
_JPCAL=  4.184000000000000    
_PLANCK= 0.6626075540000000E-33
_TOA2006= 0.5291772490000000    
_TOA= 0.5291772090000000    
_TOANG2006= 0.5291772490000000    
_TOANG= 0.5291772090000000    
_TORAD= 0.1745329251994330E-01
_TOCM=  219474.6306700000    
_TODEBYE=  2.541580000000000    
_TOEV2006=  27.21139610000000    
_TOE= 0.4803242000000000E-09
_TOEV=  27.21138390000000    
_TOHERTZ2006=  6579683899900000.    
_TOHERTZ=  6579683920700000.    
_TOHZ2006=  6579683899900000.    
_TOHZ=  6579683920700000.    
_TOK2006=  315773.3000000000    
_TOK=  315774.7000000000    
_TOKCAL=  627.5096000000000    
_TOKELVIN2006=  315773.3000000000    
_TOKELVIN=  315774.7000000000    
_TOKJ=  2625.500000000000    
_TOKJOULE=  2625.500000000000    
_TOKG= 0.1660565586000000E-26
_ANG2006=  1.889725988578923    
_ANG=  1.889726131421507    
_ANGSTROM2006=  1.889725988578923    
_ANGSTROM=  1.889726131421507    
_RPAREF=  0.000000000000000    
_RPADISS=  0.000000000000000    
_IGNORE_UNDEF=  2.000000000000000    
_STRICTCHECK=  0.000000000000000    
_SEW_ONEEL=  0.000000000000000    
_CPPDONE=FALSE
_DKROLL_DONE=  0.000000000000000    
_FOCKDONE=TRUE
_GRADONE=FALSE
_HESSDONE=FALSE
_INTDONE=TRUE
_SCFDONE=TRUE
_MODUL_BLOCK=FALSE
_MODUL_CUDA=FALSE
_MODUL_SLATER=FALSE
_MODUL_MRCC=FALSE
_MODUL_NBO6=FALSE
_MODUL_NECI=TRUE
_MODUL_AIMS=TRUE
_MRCC_EXEC=
_FITC_AO_SAVED=FALSE
_FITC_MO_SAVED=FALSE
_SHARED_FS=TRUE
_LSTYP=SEWARD
_INTYP=INTS
_GEOMTYP=ZMAT
_GRADTYP=ALASKA
_DIRECT=FALSE
_DKHO= -1.000000000000000    
_SYNCM=  0.000000000000000    
_BASIS=USERDEF
_ZORIENT=  1.000000000000000    
_NELEC=  42.00000000000000    
!SPIN=  0.000000000000000    
_QSDSTEP=  0.000000000000000    
_QSDIRC=  0.000000000000000    
_PROGRAM=MATROP
_CPUSTEP=  1.430000000000000    
_SYSSTEP= 0.9999999999999787E-02
_WALLSTEP= 0.1800000000000000    
!DFSCF=  0.000000000000000    
!SCSGRD=  0.000000000000000    
_BASINP=  610.0000000000000    
_CPUTOT=  60.94000000000000    
_DFTEXFAC=  1.000000000000000    
_DMX=  0.000000000000000    
_DMY=  0.000000000000000    
_DMZ=  0.000000000000000    
_DMX_SCF=-0.8718533513225442    
_DMY_SCF=  0.000000000000000    
_DMZ_SCF=  0.000000000000000    
_EHOMO=-0.3439228265404082    
_ELUMO= 0.1154928063196933    
_ENUC=  205.5266160318501    
_EPS1= -15.58871963632163    
_EPS2=-0.5099741184765513    
_EPS3= -11.25730657765840    
_EPS4=-0.2911500052085354    
_GRADEXFAC=  9999.000000000000    
_GRADMETHOD=TRUE
_NMRMETHOD=  0.000000000000000    
!GRID_FREEZE= -1.000000000000000    
_ITERATIONS=  0.000000000000000    
_LASTNELEC=  10.00000000000000    
_LASTSPIN=  2.000000000000000    
_LASTSYM=  1.000000000000000    
_MPP_PROG=  0.000000000000000    
_NPROC_MPP=  1.000000000000000    
_NPROC_MPPX=  1.000000000000000    
_NPROC_SMP=  16.00000000000000    
_NUMSTEP=  0.000000000000000    
_ORBITAL=  2141.200000000000    
_PI=  3.141592653589793    
_SEIG_MIN= 0.8148194445629235E-03
_SEWPROP=TRUE
_STATUS=  0.000000000000000    
_SYSTOT=  3.260000000000000    
_VERSION=  2012001.000000000    
_WALLTOT=  51.57000000000000    
_DATE=24-Jan-19
_LASTORB=MCSCF
_MACHINE=Linux-4.9.0-8-amd64/nympha18.meta.zcu.cz(x86_64) (16 PROC) 64 bit serial version
_OUTPUT=/auto/brno2/home/masiz4am/git/UKRmol-in/tests/suite/C2v_target_CAS2/molpro.xml
_PGROUP=C2v
_TIME=16:32:26
_LIBMOL=/afs/ics.muni.cz/software/molpro-2012.1/molprop_2012_1_Linux_x86_64_i8/lib/
!VIBCNT=  0.000000000000000    
!RGHFCNT=  0.000000000000000    
!SURFREC=  0.000000000000000    
!POLYREC=  0.000000000000000    
!DIPREC=  0.000000000000000    
!VSCFREC=  0.000000000000000    
!VCIREC=  0.000000000000000    
!PVCIREC=  0.000000000000000    
!VMP2REC=  0.000000000000000    
!VMCSCFREC=  0.000000000000000    
!VMRCIREC=  0.000000000000000    
!VIBINFO=  0.000000000000000    
!GAREC=  0.000000000000000    
!SCFORB=  21002.00000000000    
!MCORB=  21412.00000000000    
!NEWMOL= -1.000000000000000    
!NEWSYM= -1.000000000000000    
_SLFILES=slscratch
_NGSSTO=  9.000000000000000    
_SIN=SIN
_COS=COS
_TAN=TAN
_ACOS=ACOS
_ASIN=ASIN
_ATAN=ATAN
_COSH=COSH
_SINH=SINH
_TANH=TANH
_ABS=ABS
_MOD=MOD
_ERF=ERF
_REFC=REFC
_ERFC=ERFC
_HYPOT=HYPOT
_J0=J0
_J1=J1
_JN=JN
_GAMMA=GAMMA
_LGAMMA=LGAMMA
_Y0=Y0
_Y1=Y1
_YN=YN
_EXP=EXP
_LOG=LOG
_LOG10=LOG10
_SQRT=SQRT
_INT=INT
_NINT=NINT
_MAX=MAX
_MIN=MIN
_COSMO=  0.000000000000000    
_COSMOIT=  0.000000000000000    
_COSMOES=  0.000000000000000    
_COSMOEDS=  0.000000000000000    
_COSMOEC=  0.000000000000000    
_COSMOEDCORR=  0.000000000000000    
_FEPSI=  1.000000000000000    
_SL_IsMM=  0.000000000000000    
_SL_NSYM=  4.000000000000000    
_SL_System_BitSw=  0.000000000000000    
_SL_Unique_atoms=  0.000000000000000    
_SL_GRAD=  0.000000000000000    
_SL_MAXUPD_Hess=  5.000000000000000    
_SL_N_PRINT_COD=  5.000000000000000    
_SL_PRINT_CODES=  0.000000000000000    
_SL_BasType=  0.000000000000000    
_SL_Energy_Pred=  0.000000000000000    
_SL_New_Coords=  0.000000000000000    
_SL_Total_Nuclea=  0.000000000000000    
_SL_Highest_Mltp=  0.000000000000000    
_SL_Ref_Geom=  0.000000000000000    
_SL_Symmetry_ope=  1.000000000000000    
_SL_agrad=  0.000000000000000    
_SL_GrdMax=  0.000000000000000    
_SL_GrdNorm=  0.000000000000000    
_SL_GrdRMS=  0.000000000000000    
!LATTICE= -1.000000000000000    
!NEWLATTICE=  0.000000000000000    
!LATGRAD_VAR=FALSE
!SEW_LATTICE=  1.000000000000000    
!LOCAL=  0.000000000000000    
!SAVEDOM= -1.000000000000000    
!RESTDOM= -1.000000000000000    
!SAVEDOM_HF= -1.000000000000000    
!RESTDOM_HF= -1.000000000000000    
!HESSREC=  0.000000000000000    
!FREQREC=  0.000000000000000    
!NMODREC=  0.000000000000000    
!GTASKS=  0.000000000000000    
!HTASKS=  0.000000000000000    
!THRCHG= 0.1000000000000000    
!DEBUG= -1.000000000000000    
!CFIT_CPHF=  0.000000000000000    
!RDOMAUX_CPHF=  3.000000000000000    
!THRAO_CPHF= 0.1000000000000000E-09
!THRMO_CPHF= 0.1000000000000000E-08
!THROV_CPHF= 0.1000000000000000E-11
!THRSW_CPHF= 0.1000000000000000E-09
!THRPROD_CPHF= 0.1000000000000000E-08
!THRAOPR_CPHF= 0.1000000000000000E-11
!CFIT_SCFGRD=  0.000000000000000    
!RDOMAUX_SCFGRD=  5.000000000000000    
!THRAO_SCFGRD= 0.1000000000000000E-09
!THRMO_SCFGRD= 0.1000000000000000E-08
!THROV_SCFGRD= 0.1000000000000000E-11
!THRSW_SCFGRD= 0.1000000000000000E-09
!THRPROD_SCFGRD= 0.1000000000000000E-08
!THRAOPR_SCFGRD= 0.1000000000000000E-11
!LOCFIT_SCF=  0.000000000000000    
!LOCFIT_MP2= -1.000000000000000    
_RIDOM=  0.000000000000000    
!CC2_METHOD=  0.000000000000000    
_BASIS2006=FALSE
_SVDDEL= -1.000000000000000    
_SVDDELA= -1.000000000000000    
_SVDDELP= -1.000000000000000    
_SVDDELF= -1.000000000000000    
_SVDDELS= -1.000000000000000    
_SVDDEL_ABS= -1.000000000000000    
_SVDDELA_ABS= -1.000000000000000    
_SVDDELP_ABS= -1.000000000000000    
_SVDDELF_ABS= -1.000000000000000    
_SVDDELS_ABS= -1.000000000000000    
_MAXBASIS=  0.000000000000000    
!OPT_CONICAL=  0.000000000000000    
!CLEARSP_JGRID=  0.000000000000000    
_4EXT_NDISKS=  1.000000000000000    
!ZMP=  0.000000000000000    
_MAXIT_ZMP=  500.0000000000000    
_MAXDIS_ZMP=  100.0000000000000    
_ACCU_ZMP=  14.00000000000000    
_SHIFTA_ZMP= -100.0000000000000    
!EMBEDFLAG=  1.000000000000000    
!EMBED=FALSE
!EMBED_F12=FALSE
!EMBEDNUC=  0.000000000000000    
_EMBEDENERGY=  0.000000000000000    
_KSPACETIME=  0.000000000000000    
_RSPACETIME=  0.000000000000000    
!EMBED_DFC=FALSE
!NUM_VOIDS=  0.000000000000000    
_IBODY=  0.000000000000000    
_EMBE_TOTAL=  0.000000000000000    
_EMBE_HF=  0.000000000000000    
_EMBE_CORR=  0.000000000000000    
!EDFT=  0.000000000000000    
_IFASTLATGRAD=  0.000000000000000    
_SINDEX=  0.000000000000000    
M_NAME=CASSCF(10,8)
M_CLOSED=  10.00000000000000    
M_OCC=  11.00000000000000    
GX1=  2.696450217000000    
GY1=  0.000000000000000    
GZ1=  0.000000000000000    
GX2=  1.366649938000000    
GY2=  0.000000000000000    
GZ2= -2.157500324000000    
GX3= -1.275187193000000    
GY3=  0.000000000000000    
GZ3= -2.266726495000000    
GX4= -2.628609049000000    
GY4=  0.000000000000000    
GZ4=  0.000000000000000    
GX5=  2.474029451000000    
GY5=  0.000000000000000    
GZ5= -3.891324050000000    
GX6= -2.232900397000000    
GY6=  0.000000000000000    
GZ6= -4.081997416000000    
GX7= -4.682552381000000    
GY7=  0.000000000000000    
GZ7=  0.000000000000000    
GX8= -1.275187193000000    
GY8=  0.000000000000000    
GZ8=  2.266726495000000    
GX9=  1.366649938000000    
GY9=  0.000000000000000    
GZ9=  2.157500324000000    
GX10= -2.232900397000000    
GY10=  0.000000000000000    
GZ10=  4.081997416000000    
GX11=  2.474029451000000    
GY11=  0.000000000000000    
GZ11=  3.891324050000000    
_TRDMX=-0.1137856946419117    
_TRDMY=  0.000000000000000    
_TRDMZ=  0.000000000000000    
[Atoms] Angs
N     1    7         1.4269000000        0.0000000000        0.0000000000
C     2    6         0.7231999999        0.0000000000       -1.1416999999
C     3    6        -0.6747999997        0.0000000000       -1.1995000002
C     4    6        -1.3910000001        0.0000000000        0.0000000000
H     5    1         1.3091999999        0.0000000000       -2.0592000001
H     6    1        -1.1816000001        0.0000000000       -2.1600999997
H     7    1        -2.4779000000        0.0000000000        0.0000000000
C     8    6        -0.6747999997        0.0000000000        1.1995000002
C     9    6         0.7231999999        0.0000000000        1.1416999999
H    10    1        -1.1816000001        0.0000000000        2.1600999997
H    11    1         1.3091999999        0.0000000000        2.0592000001
[GTO]
  1 0
 s    8  1.00
  0.9046000000D+04  0.6996174134D-03
  0.1357000000D+04  0.5386054630D-02
  0.3093000000D+03  0.2739102119D-01
  0.8773000000D+02  0.1031505920D+00
  0.2856000000D+02  0.2785706633D+00
  0.1021000000D+02  0.4482948495D+00
  0.3838000000D+01  0.2780859284D+00
  0.7466000000D+00  0.1543156123D-01
 s    8  1.00
  0.9046000000D+04 -0.3049900960D-03
  0.1357000000D+04 -0.2408026379D-02
  0.3093000000D+03 -0.1194444873D-01
  0.8773000000D+02 -0.4892599291D-01
  0.2856000000D+02 -0.1344727247D+00
  0.1021000000D+02 -0.3151125777D+00
  0.3838000000D+01 -0.2428578325D+00
  0.7466000000D+00  0.1094382207D+01
 s    1  1.00
  0.2248000000D+00  0.1000000000D+01
 p    3  1.00
  0.1355000000D+02  0.5890567677D-01
  0.2917000000D+01  0.3204611067D+00
  0.7973000000D+00  0.7530420618D+00
 p    1  1.00
  0.2185000000D+00  0.1000000000D+01
 d    1  1.00
  0.8170000000D+00  0.1000000000D+01
  
  2 0
 s    8  1.00
  0.6665000000D+04  0.6915839628D-03
  0.1000000000D+04  0.5325796153D-02
  0.2280000000D+03  0.2706072104D-01
  0.6471000000D+02  0.1016568461D+00
  0.2106000000D+02  0.2745748236D+00
  0.7495000000D+01  0.4482943189D+00
  0.2797000000D+01  0.2849026107D+00
  0.5215000000D+00  0.1519485921D-01
 s    8  1.00
  0.6665000000D+04 -0.2932696527D-03
  0.1000000000D+04 -0.2318035474D-02
  0.2280000000D+03 -0.1149978604D-01
  0.6471000000D+02 -0.4682672701D-01
  0.2106000000D+02 -0.1284661688D+00
  0.7495000000D+01 -0.3012662725D+00
  0.2797000000D+01 -0.2556307023D+00
  0.5215000000D+00  0.1093793361D+01
 s    1  1.00
  0.1596000000D+00  0.1000000000D+01
 p    3  1.00
  0.9439000000D+01  0.5697925159D-01
  0.2002000000D+01  0.3132072115D+00
  0.5456000000D+00  0.7603767417D+00
 p    1  1.00
  0.1517000000D+00  0.1000000000D+01
 d    1  1.00
  0.5500000000D+00  0.1000000000D+01
  
  9 0
 s    8  1.00
  0.6665000000D+04  0.6915839628D-03
  0.1000000000D+04  0.5325796153D-02
  0.2280000000D+03  0.2706072104D-01
  0.6471000000D+02  0.1016568461D+00
  0.2106000000D+02  0.2745748236D+00
  0.7495000000D+01  0.4482943189D+00
  0.2797000000D+01  0.2849026107D+00
  0.5215000000D+00  0.1519485921D-01
 s    8  1.00
  0.6665000000D+04 -0.2932696527D-03
  0.1000000000D+04 -0.2318035474D-02
  0.2280000000D+03 -0.1149978604D-01
  0.6471000000D+02 -0.4682672701D-01
  0.2106000000D+02 -0.1284661688D+00
  0.7495000000D+01 -0.3012662725D+00
  0.2797000000D+01 -0.2556307023D+00
  0.5215000000D+00  0.1093793361D+01
 s    1  1.00
  0.1596000000D+00  0.1000000000D+01
 p    3  1.00
  0.9439000000D+01  0.5697925159D-01
  0.2002000000D+01  0.3132072115D+00
  0.5456000000D+00  0.7603767417D+00
 p    1  1.00
  0.1517000000D+00  0.1000000000D+01
 d    1  1.00
  0.5500000000D+00  0.1000000000D+01
  
  3 0
 s    8  1.00
  0.6665000000D+04  0.6915839628D-03
  0.1000000000D+04  0.5325796153D-02
  0.2280000000D+03  0.2706072104D-01
  0.6471000000D+02  0.1016568461D+00
  0.2106000000D+02  0.2745748236D+00
  0.7495000000D+01  0.4482943189D+00
  0.2797000000D+01  0.2849026107D+00
  0.5215000000D+00  0.1519485921D-01
 s    8  1.00
  0.6665000000D+04 -0.2932696527D-03
  0.1000000000D+04 -0.2318035474D-02
  0.2280000000D+03 -0.1149978604D-01
  0.6471000000D+02 -0.4682672701D-01
  0.2106000000D+02 -0.1284661688D+00
  0.7495000000D+01 -0.3012662725D+00
  0.2797000000D+01 -0.2556307023D+00
  0.5215000000D+00  0.1093793361D+01
 s    1  1.00
  0.1596000000D+00  0.1000000000D+01
 p    3  1.00
  0.9439000000D+01  0.5697925159D-01
  0.2002000000D+01  0.3132072115D+00
  0.5456000000D+00  0.7603767417D+00
 p    1  1.00
  0.1517000000D+00  0.1000000000D+01
 d    1  1.00
  0.5500000000D+00  0.1000000000D+01
  
  8 0
 s    8  1.00
  0.6665000000D+04  0.6915839628D-03
  0.1000000000D+04  0.5325796153D-02
  0.2280000000D+03  0.2706072104D-01
  0.6471000000D+02  0.1016568461D+00
  0.2106000000D+02  0.2745748236D+00
  0.7495000000D+01  0.4482943189D+00
  0.2797000000D+01  0.2849026107D+00
  0.5215000000D+00  0.1519485921D-01
 s    8  1.00
  0.6665000000D+04 -0.2932696527D-03
  0.1000000000D+04 -0.2318035474D-02
  0.2280000000D+03 -0.1149978604D-01
  0.6471000000D+02 -0.4682672701D-01
  0.2106000000D+02 -0.1284661688D+00
  0.7495000000D+01 -0.3012662725D+00
  0.2797000000D+01 -0.2556307023D+00
  0.5215000000D+00  0.1093793361D+01
 s    1  1.00
  0.1596000000D+00  0.1000000000D+01
 p    3  1.00
  0.9439000000D+01  0.5697925159D-01
  0.2002000000D+01  0.3132072115D+00
  0.5456000000D+00  0.7603767417D+00
 p    1  1.00
  0.1517000000D+00  0.1000000000D+01
 d    1  1.00
  0.5500000000D+00  0.1000000000D+01
  
  4 0
 s    8  1.00
  0.6665000000D+04  0.6915839628D-03
  0.1000000000D+04  0.5325796153D-02
  0.2280000000D+03  0.2706072104D-01
  0.6471000000D+02  0.1016568461D+00
  0.2106000000D+02  0.2745748236D+00
  0.7495000000D+01  0.4482943189D+00
  0.2797000000D+01  0.2849026107D+00
  0.5215000000D+00  0.1519485921D-01
 s    8  1.00
  0.6665000000D+04 -0.2932696527D-03
  0.1000000000D+04 -0.2318035474D-02
  0.2280000000D+03 -0.1149978604D-01
  0.6471000000D+02 -0.4682672701D-01
  0.2106000000D+02 -0.1284661688D+00
  0.7495000000D+01 -0.3012662725D+00
  0.2797000000D+01 -0.2556307023D+00
  0.5215000000D+00  0.1093793361D+01
 s    1  1.00
  0.1596000000D+00  0.1000000000D+01
 p    3  1.00
  0.9439000000D+01  0.5697925159D-01
  0.2002000000D+01  0.3132072115D+00
  0.5456000000D+00  0.7603767417D+00
 p    1  1.00
  0.1517000000D+00  0.1000000000D+01
 d    1  1.00
  0.5500000000D+00  0.1000000000D+01
  
  5 0
 s    3  1.00
  0.1301000000D+02  0.3349872639D-01
  0.1962000000D+01  0.2348008012D+00
  0.4446000000D+00  0.8136829579D+00
 s    1  1.00
  0.1220000000D+00  0.1000000000D+01
 p    1  1.00
  0.7270000000D+00  0.1000000000D+01
  
 11 0
 s    3  1.00
  0.1301000000D+02  0.3349872639D-01
  0.1962000000D+01  0.2348008012D+00
  0.4446000000D+00  0.8136829579D+00
 s    1  1.00
  0.1220000000D+00  0.1000000000D+01
 p    1  1.00
  0.7270000000D+00  0.1000000000D+01
  
  6 0
 s    3  1.00
  0.1301000000D+02  0.3349872639D-01
  0.1962000000D+01  0.2348008012D+00
  0.4446000000D+00  0.8136829579D+00
 s    1  1.00
  0.1220000000D+00  0.1000000000D+01
 p    1  1.00
  0.7270000000D+00  0.1000000000D+01
  
 10 0
 s    3  1.00
  0.1301000000D+02  0.3349872639D-01
  0.1962000000D+01  0.2348008012D+00
  0.4446000000D+00  0.8136829579D+00
 s    1  1.00
  0.1220000000D+00  0.1000000000D+01
 p    1  1.00
  0.7270000000D+00  0.1000000000D+01
  
  7 0
 s    3  1.00
  0.1301000000D+02  0.3349872639D-01
  0.1962000000D+01  0.2348008012D+00
  0.4446000000D+00  0.8136829579D+00
 s    1  1.00
  0.1220000000D+00  0.1000000000D+01
 p    1  1.00
  0.7270000000D+00  0.1000000000D+01
 
 
[MO]
 Sym=      1.1
 Ene=     -15.5887
 Spin= Alpha
 Occup=    2.000000
1 1.00203595717621
2 0.003517895719773
3 -0.010871644721319
4 -0.001602256687162
5 0.0
6 0.0
7 0.003126280550120
8 0.0
9 0.0
10 -0.000148192834342
11 -0.000115724413617
12 0.000263917247959
13 0.0
14 0.0
15 0.0
16 0.000131804229428
17 0.000121752763877
18 0.004503299082982
19 -0.000004435119451
20 0.0
21 0.000010706078259
22 -0.000503737236527
23 0.0
24 0.002941632486753
25 0.000064201111395
26 0.000060461739294
27 -0.000124662850689
28 0.0
29 -0.000574017028037
30 0.0
31 0.000131804229428
32 0.000121752763877
33 0.004503299082982
34 -0.000004435119451
35 0.0
36 -0.000010706078259
37 -0.000503737236527
38 0.0
39 -0.002941632486753
40 0.000064201111395
41 0.000060461739294
42 -0.000124662850689
43 0.0
44 0.000574017028037
45 0.0
46 0.000128731126180
47 0.000208665905965
48 -0.003941420612275
49 -0.000056653170522
50 0.0
51 -0.000016646784254
52 -0.000774883232498
53 0.0
54 -0.002935051555962
55 -0.000017124386654
56 0.000036337910415
57 -0.000019213523761
58 0.0
59 -0.000228486361268
60 0.0
61 0.000128731126180
62 0.000208665905965
63 -0.003941420612275
64 -0.000056653170522
65 0.0
66 0.000016646784254
67 -0.000774883232498
68 0.0
69 0.002935051555962
70 -0.000017124386654
71 0.000036337910415
72 -0.000019213523761
73 0.0
74 0.000228486361268
75 0.0
76 -0.000210534108902
77 -0.000367567212760
78 0.005209158344897
79 -0.000046933902233
80 0.0
81 0.0
82 0.002383994753909
83 0.0
84 0.0
85 0.000151010894729
86 -0.000101380139726
87 -0.000049630755003
88 0.0
89 0.0
90 0.0
91 -0.000163016641514
92 0.000598526168234
93 -0.000033674927960
94 0.0
95 -0.000235373486535
96 -0.000163016641514
97 0.000598526168234
98 -0.000033674927960
99 0.0
100 0.000235373486535
101 -0.000094274101798
102 -0.000787381055177
103 -0.000013735848711
104 0.0
105 0.000124415336083
106 -0.000094274101798
107 -0.000787381055177
108 -0.000013735848711
109 0.0
110 -0.000124415336083
111 -0.000084602243175
112 0.000545510134688
113 -0.000097426432275
114 0.0
115 0.0
 Sym=      1.3
 Ene=     -11.2573
 Spin= Alpha
 Occup=    2.000000
1 0.0
2 0.0
3 0.0
4 0.0
5 0.0
6 -0.000215783136488
7 0.0
8 0.0
9 0.002754135637871
10 0.0
11 0.0
12 0.0
13 0.0
14 -0.000290753272553
15 0.0
16 0.70833753395757
17 0.003359968445746
18 -0.005816874401982
19 0.000234651570021
20 0.0
21 0.000488844089112
22 0.003496612675075
23 0.0
24 0.000267857610647
25 0.000244036411905
26 -0.000385027801487
27 0.000140991389583
28 0.0
29 0.000114121080618
30 0.0
31 -0.70833753395757
32 -0.003359968445746
33 0.005816874401982
34 -0.000234651570021
35 0.0
36 0.000488844089112
37 -0.003496612675075
38 0.0
39 0.000267857610647
40 -0.000244036411905
41 0.000385027801487
42 -0.000140991389583
43 0.0
44 0.000114121080618
45 0.0
46 0.023189559365832
47 -0.000095766584450
48 0.001940419745029
49 -0.000043852833608
50 0.0
51 0.000073724024563
52 0.002989661383765
53 0.0
54 -0.000858986954186
55 -0.000133052827380
56 0.000225292105938
57 -0.000092239278557
58 0.0
59 0.000010553601974
60 0.0
61 -0.023189559365832
62 0.000095766584450
63 -0.001940419745029
64 0.000043852833608
65 0.0
66 0.000073724024563
67 -0.002989661383765
68 0.0
69 -0.000858986954186
70 0.000133052827380
71 -0.000225292105938
72 0.000092239278557
73 0.0
74 0.000010553601974
75 0.0
76 0.0
77 0.0
78 0.0
79 0.0
80 0.0
81 -0.000035455361446
82 0.0
83 0.0
84 -0.002420922918192
85 0.0
86 0.0
87 0.0
88 0.0
89 -0.000110711137942
90 0.0
91 -0.000323393414168
92 0.000165099942572
93 -0.000008246845968
94 0.0
95 -0.000329581245994
96 0.000323393414168
97 -0.000165099942572
98 0.000008246845968
99 0.0
100 -0.000329581245994
101 0.000002278219611
102 0.000228086670123
103 -0.000033809490475
104 0.0
105 0.000109810639364
106 -0.000002278219611
107 -0.000228086670123
108 0.000033809490475
109 0.0
110 0.000109810639364
111 0.0
112 0.0
113 0.0
114 0.0
115 0.000056464002867
 Sym=      2.1
 Ene=     -11.2573
 Spin= Alpha
 Occup=    2.000000
1 0.000237091691740
2 0.001113019304209
3 -0.005503989278175
4 0.000040421129318
5 0.0
6 0.0
7 0.002435204615411
8 0.0
9 0.0
10 -0.000098773922957
11 0.000566670212066
12 -0.000467896289110
13 0.0
14 0.0
15 0.0
16 0.70808902390960
17 0.002953496370832
18 -0.000443748117613
19 0.000278812997242
20 0.0
21 0.000550045322134
22 -0.000764234313923
23 0.0
24 0.002652706555516
25 0.000235805049928
26 -0.000680271953456
27 0.000444466903529
28 0.0
29 0.000150047707223
30 0.0
31 0.70808902390960
32 0.002953496370832
33 -0.000443748117613
34 0.000278812997242
35 0.0
36 -0.000550045322134
37 -0.000764234313923
38 0.0
39 -0.002652706555516
40 0.000235805049928
41 -0.000680271953456
42 0.000444466903529
43 0.0
44 -0.000150047707223
45 0.0
46 0.023076689681197
47 0.000224199040270
48 -0.004177826162015
49 -0.000058267926848
50 0.0
51 0.000018425433633
52 -0.000548131212733
53 0.0
54 -0.003138247298876
55 -0.000233515535003
56 0.000366063716077
57 -0.000132548181074
58 0.0
59 0.000011014428816
60 0.0
61 0.023076689681197
62 0.000224199040270
63 -0.004177826162015
64 -0.000058267926848
65 0.0
66 -0.000018425433633
67 -0.000548131212733
68 0.0
69 0.003138247298876
70 -0.000233515535003
71 0.000366063716077
72 -0.000132548181074
73 0.0
74 -0.000011014428816
75 0.0
76 0.000342305416663
77 -0.000357498131903
78 0.006363085065751
79 0.000035519492480
80 0.0
81 0.0
82 0.003159066053771
83 0.0
84 0.0
85 0.000166579343886
86 -0.000273208606976
87 0.000106629263090
88 0.0
89 0.0
90 0.0
91 -0.000121789087586
92 0.001504142925295
93 0.000162452163978
94 0.0
95 -0.000380945715820
96 -0.000121789087586
97 0.001504142925295
98 0.000162452163978
99 0.0
100 0.000380945715820
101 -0.000074687056508
102 -0.000700611792915
103 0.000080550821663
104 0.0
105 0.000148178009911
106 -0.000074687056508
107 -0.000700611792915
108 0.000080550821663
109 0.0
110 -0.000148178009911
111 -0.000054785984694
112 0.000804384338011
113 -0.000115668809172
114 0.0
115 0.0
 Sym=      3.1
 Ene=     -11.2409
 Spin= Alpha
 Occup=    2.000000
1 0.000086820990350
2 0.000119418897979
3 -0.001267841909333
4 -0.000020140288639
5 0.0
6 0.0
7 0.000643610698777
8 0.0
9 0.0
10 0.000035136606351
11 -0.000074604344955
12 0.000039467738604
13 0.0
14 0.0
15 0.0
16 -0.023289777336949
17 -0.000372156322699
18 0.003365197618791
19 0.000093165855790
20 0.0
21 0.000024001744970
22 -0.001577539551079
23 0.0
24 0.000861923823164
25 -0.000177786538819
26 0.000154818309000
27 0.000022968229819
28 0.0
29 0.000013957756178
30 0.0
31 -0.023289777336949
32 -0.000372156322699
33 0.003365197618791
34 0.000093165855790
35 0.0
36 -0.000024001744970
37 -0.001577539551079
38 0.0
39 -0.000861923823164
40 -0.000177786538819
41 0.000154818309000
42 0.000022968229819
43 0.0
44 -0.000013957756178
45 0.0
46 0.70647702898437
47 0.003306062869962
48 -0.008092811740419
49 0.000030882303747
50 0.0
51 0.000050612250462
52 -0.001358163746300
53 0.0
54 -0.001642759380399
55 0.000094018030729
56 -0.000396339655545
57 0.000302321624815
58 0.0
59 0.000100969847352
60 0.0
61 0.70647702898437
62 0.003306062869962
63 -0.008092811740419
64 0.000030882303747
65 0.0
66 -0.000050612250462
67 -0.001358163746300
68 0.0
69 0.001642759380399
70 0.000094018030729
71 -0.000396339655545
72 0.000302321624815
73 0.0
74 -0.000100969847352
75 0.0
76 0.071518272360848
77 -0.000166669359104
78 0.003741122233112
79 -0.000061226098878
80 0.0
81 0.0
82 0.002148701346377
83 0.0
84 0.0
85 -0.000212522448633
86 0.000432858621824
87 -0.000220336173191
88 0.0
89 0.0
90 0.0
91 0.000061779731877
92 0.000422837515537
93 -0.000006279609953
94 0.0
95 0.000067243798923
96 0.000061779731877
97 0.000422837515537
98 -0.000006279609953
99 0.0
100 -0.000067243798923
101 -0.000404491137530
102 0.000392693268780
103 -0.000171876261223
104 0.0
105 -0.000328337054422
106 -0.000404491137530
107 0.000392693268780
108 -0.000171876261223
109 0.0
110 0.000328337054422
111 0.000180894783024
112 0.000716704889176
113 0.000137247048343
114 0.0
115 0.0
 Sym=      2.3
 Ene=     -11.2408
 Spin= Alpha
 Occup=    2.000000
1 0.0
2 0.0
3 0.0
4 0.0
5 0.0
6 -0.000029964539256
7 0.0
8 0.0
9 0.000012265979205
10 0.0
11 0.0
12 0.0
13 0.0
14 0.000032688502957
15 0.0
16 -0.023560801008083
17 -0.000246957037807
18 0.001753921991313
19 0.000029111888097
20 0.0
21 0.000051087054516
22 -0.000743322939794
23 0.0
24 0.000546331429526
25 -0.000219586940784
26 0.000269213053820
27 -0.000049626113036
28 0.0
29 0.000038194971643
30 0.0
31 0.023560801008083
32 0.000246957037807
33 -0.001753921991313
34 -0.000029111888097
35 0.0
36 0.000051087054516
37 0.000743322939794
38 0.0
39 0.000546331429526
40 0.000219586940784
41 -0.000269213053820
42 0.000049626113036
43 0.0
44 0.000038194971643
45 0.0
46 0.70834816290576
47 0.003375750456615
48 -0.006967789775756
49 0.000057597715725
50 0.0
51 0.000024119679761
52 -0.000243353133719
53 0.0
54 -0.001551917084296
55 0.000132949547900
56 -0.000312926583660
57 0.000179977035760
58 0.0
59 0.000094341130506
60 0.0
61 -0.70834816290576
62 -0.003375750456615
63 0.006967789775756
64 -0.000057597715725
65 0.0
66 0.000024119679761
67 0.000243353133719
68 0.0
69 -0.001551917084296
70 -0.000132949547900
71 0.000312926583660
72 -0.000179977035760
73 0.0
74 0.000094341130506
75 0.0
76 0.0
77 0.0
78 0.0
79 0.0
80 0.0
81 0.000208559564564
82 0.0
83 0.0
84 -0.001683688471436
85 0.0
86 0.0
87 0.0
88 0.0
89 0.000213076411898
90 0.0
91 0.000082779082354
92 0.000212156739257
93 -0.000054862153409
94 0.0
95 0.000083548705820
96 -0.000082779082354
97 -0.000212156739257
98 0.000054862153409
99 0.0
100 0.000083548705820
101 -0.000306984249567
102 0.000464023020368
103 -0.000184180288033
104 0.0
105 -0.000319116939130
106 0.000306984249567
107 -0.000464023020368
108 0.000184180288033
109 0.0
110 -0.000319116939130
111 0.0
112 0.0
113 0.0
114 0.0
115 0.000047408667966
 Sym=      4.1
 Ene=     -11.2303
 Spin= Alpha
 Occup=    2.000000
1 -0.000012161694531
2 -0.000028948977979
3 0.000028574733749
4 0.000024964292366
5 0.0
6 0.0
7 0.000112353108233
8 0.0
9 0.0
10 -0.000028621906552
11 0.000016616342463
12 0.000012005564089
13 0.0
14 0.0
15 0.0
16 0.001196213108312
17 -0.000093089380744
18 0.000112216226799
19 0.000023261125479
20 0.0
21 -0.000006839601300
22 -0.000232940506383
23 0.0
24 -0.000036090917552
25 0.000087201133891
26 -0.000135820512633
27 0.000048619378742
28 0.0
29 -0.000068677142158
30 0.0
31 0.001196213108312
32 -0.000093089380744
33 0.000112216226799
34 0.000023261125479
35 0.0
36 0.000006839601300
37 -0.000232940506383
38 0.0
39 0.000036090917552
40 0.000087201133891
41 -0.000135820512633
42 0.000048619378742
43 0.0
44 0.000068677142158
45 0.0
46 -0.051161105140599
47 -0.000551336666364
48 0.002772062859770
49 0.000028708642971
50 0.0
51 -0.000085782656673
52 -0.000329366643687
53 0.0
54 0.001546534633735
55 -0.000073623109222
56 0.000385033197077
57 -0.000311410087855
58 0.0
59 0.000060222843923
60 0.0
61 -0.051161105140599
62 -0.000551336666364
63 0.002772062859770
64 0.000028708642971
65 0.0
66 0.000085782656673
67 -0.000329366643687
68 0.0
69 -0.001546534633735
70 -0.000073623109222
71 0.000385033197077
72 -0.000311410087855
73 0.0
74 -0.000060222843923
75 0.0
76 0.99967990494859
77 0.004736110847403
78 -0.009965594116098
79 0.000162170811790
80 0.0
81 0.0
82 -0.002098470838209
83 0.0
84 0.0
85 0.000464483917215
86 -0.000576985932985
87 0.000112502015770
88 0.0
89 0.0
90 0.0
91 -0.000056635743422
92 0.000105973584018
93 0.000013485449752
94 0.0
95 -0.000033295662440
96 -0.000056635743422
97 0.000105973584018
98 0.000013485449752
99 0.0
100 0.000033295662440
101 0.000178071543674
102 0.000316879388503
103 0.000103827487618
104 0.0
105 0.000138517747749
106 0.000178071543674
107 0.000316879388503
108 0.000103827487618
109 0.0
110 -0.000138517747749
111 -0.000530429114146
112 0.000678905461653
113 -0.000552930702570
114 0.0
115 0.0
 Sym=      5.1
 Ene=      -1.2597
 Spin= Alpha
 Occup=    2.000000
1 -0.015317250945653
2 0.32819850051942
3 0.32654724475336
4 -0.10569131415070
5 0.0
6 0.0
7 -0.051212166747573
8 0.0
9 0.0
10 0.002777566386296
11 -0.013585884977289
12 0.010808318590993
13 0.0
14 0.0
15 0.0
16 -0.012413552922517
17 0.18513285190864
18 0.047285631655435
19 0.024974333736378
20 0.0
21 0.10419612183107
22 0.005134288086918
23 0.0
24 -0.009220336093031
25 -0.002725173428678
26 -0.011949113736357
27 0.014674287165034
28 0.0
29 0.015674057541550
30 0.0
31 -0.012413552922517
32 0.18513285190864
33 0.047285631655435
34 0.024974333736378
35 0.0
36 -0.10419612183107
37 0.005134288086918
38 0.0
39 0.009220336093031
40 -0.002725173428678
41 -0.011949113736357
42 0.014674287165034
43 0.0
44 -0.015674057541550
45 0.0
46 -0.006517939755173
47 0.082025939164079
48 0.082547242310373
49 0.035369188556074
50 0.0
51 0.028096493420160
52 0.016243078026686
53 0.0
54 0.035700626197142
55 0.007723123184652
56 -0.006287277019288
57 -0.001435846165365
58 0.0
59 0.002529786959012
60 0.0
61 -0.006517939755173
62 0.082025939164079
63 0.082547242310373
64 0.035369188556074
65 0.0
66 -0.028096493420160
67 0.016243078026686
68 0.0
69 -0.035700626197142
70 0.007723123184652