[Molden Format]
[Atoms] (AU)
C    1    6        -0.000000000000       0.000000000000      -0.000000000000
H    2    1         1.687916000000       0.000000000000       1.193537000000
H    3    1        -1.687916000000      -0.000000000000       1.193537000000
H    4    1        -0.000000000000       1.687916000000      -1.193537000000
H    5    1         0.000000000000      -1.687916000000      -1.193537000000
[GTO]
  1 0
 s    8  1.00
     8236.0000000000         0.0005310000
     1235.0000000000         0.0041080000
      280.8000000000         0.0210870000
       79.2700000000         0.0818530000
       25.5900000000         0.2348170000
        8.9970000000         0.4344010000
        3.3190000000         0.3461290000
        0.3643000000        -0.0089830000
 s    8  1.00
     8236.0000000000        -0.0001130000
     1235.0000000000        -0.0008780000
      280.8000000000        -0.0045400000
       79.2700000000        -0.0181330000
       25.5900000000        -0.0557600000
        8.9970000000        -0.1268950000
        3.3190000000        -0.1703520000
        0.3643000000         0.5986840000
 s    1  1.00
        0.9059000000         1.0000000000
 s    1  1.00
        0.1285000000         1.0000000000
 p    3  1.00
       18.7100000000         0.0140310000
        4.1330000000         0.0868660000
        1.2000000000         0.2902160000
 p    1  1.00
        0.3827000000         1.0000000000
 p    1  1.00
        0.1209000000         1.0000000000
 d    1  1.00
        1.0970000000         1.0000000000
 d    1  1.00
        0.3180000000         1.0000000000
 f    1  1.00
        0.7610000000         1.0000000000

  2 0
 s    3  1.00
       33.8700000000         0.0060680000
        5.0950000000         0.0453080000
        1.1590000000         0.2028220000
 s    1  1.00
        0.3258000000         1.0000000000
 s    1  1.00
        0.1027000000         1.0000000000
 p    1  1.00
        1.4070000000         1.0000000000
 p    1  1.00
        0.3880000000         1.0000000000
 d    1  1.00
        1.0570000000         1.0000000000

  3 0
 s    3  1.00
       33.8700000000         0.0060680000
        5.0950000000         0.0453080000
        1.1590000000         0.2028220000
 s    1  1.00
        0.3258000000         1.0000000000
 s    1  1.00
        0.1027000000         1.0000000000
 p    1  1.00
        1.4070000000         1.0000000000
 p    1  1.00
        0.3880000000         1.0000000000
 d    1  1.00
        1.0570000000         1.0000000000

  4 0
 s    3  1.00
       33.8700000000         0.0060680000
        5.0950000000         0.0453080000
        1.1590000000         0.2028220000
 s    1  1.00
        0.3258000000         1.0000000000
 s    1  1.00
        0.1027000000         1.0000000000
 p    1  1.00
        1.4070000000         1.0000000000
 p    1  1.00
        0.3880000000         1.0000000000
 d    1  1.00
        1.0570000000         1.0000000000

  5 0
 s    3  1.00
       33.8700000000         0.0060680000
        5.0950000000         0.0453080000
        1.1590000000         0.2028220000
 s    1  1.00
        0.3258000000         1.0000000000
 s    1  1.00
        0.1027000000         1.0000000000
 p    1  1.00
        1.4070000000         1.0000000000
 p    1  1.00
        0.3880000000         1.0000000000
 d    1  1.00
        1.0570000000         1.0000000000

[5D]
[9G]

[MO]
 Sym= A1
 Ene= -1.15977515109995721e+01
 Spin= Alpha
 Occup=  1.00000000000000000e+00
  1  9.78364279188907671e-01
  2  1.49143132036291641e-03
  3  4.14721456890692272e-02
  4  5.81538154098780111e-03
  5  0.00000000000000000e+00
  6  0.00000000000000000e+00
  7 -7.79842770584588101e-04
  8  0.00000000000000000e+00
  9  0.00000000000000000e+00
 10  5.88232891091908868e-04
 11  0.00000000000000000e+00
 12  0.00000000000000000e+00
 13  1.41347063322435972e-04
 14  5.81582909977749365e-05
 15  0.00000000000000000e+00
 16  0.00000000000000000e+00
 17 -3.16446796548312727e-05
 18  0.00000000000000000e+00
 19  7.48557851896954356e-05
 20  0.00000000000000000e+00
 21  0.00000000000000000e+00
 22  3.58423547096830316e-04
 23  0.00000000000000000e+00
 24  1.06942573291153963e-05
 25  0.00000000000000000e+00
 26  0.00000000000000000e+00
 27  8.93332716972735784e-04
 28  0.00000000000000000e+00
 29  0.00000000000000000e+00
 30  0.00000000000000000e+00
 31  1.48231138417048518e-04
 32 -7.69061945120732573e-04
 33 -7.67640908292392243e-04
 34  2.28776545367373419e-04
 35  0.00000000000000000e+00
 36  1.60789962460604726e-04
 37  2.71179816821363992e-04
 38  0.00000000000000000e+00
 39  1.29379240853099559e-04
 40  1.02713276080714595e-05
 41 -1.43322390387459238e-04
 42  0.00000000000000000e+00
 43 -1.30045068057075755e-04
 44  0.00000000000000000e+00
 45  1.48231138417048518e-04
 46 -7.69061945120732573e-04
 47 -7.67640908292392243e-04
 48 -2.28776545367373419e-04
 49  0.00000000000000000e+00
 50  1.60789962460604726e-04
 51 -2.71179816821363992e-04
 52  0.00000000000000000e+00
 53  1.29379240853099559e-04
 54  1.02713276080714595e-05
 55  1.43322390387459238e-04
 56  0.00000000000000000e+00
 57 -1.30045068057075755e-04
 58  0.00000000000000000e+00
 59  8.17475987992379927e-05
 60 -3.61072994132388215e-04
 61 -6.96187659534015747e-04
 62  0.00000000000000000e+00
 63  3.02884188045200243e-04
 64 -2.39822480048788910e-04
 65  0.00000000000000000e+00
 66  1.36798881840895892e-04
 67 -1.55246861479446018e-04
 68 -3.23201552795568202e-05
 69  0.00000000000000000e+00
 70  3.01958508256629286e-04
 71  1.64379738106555428e-04
 72  0.00000000000000000e+00
 73  8.17475987992379927e-05
 74 -3.61072994132388215e-04
 75 -6.96187659534015747e-04
 76  0.00000000000000000e+00
 77 -3.02884188045200243e-04
 78 -2.39822480048788910e-04
 79  0.00000000000000000e+00
 80 -1.36798881840895892e-04
 81 -1.55246861479446018e-04
 82 -3.23201552795568202e-05
 83  0.00000000000000000e+00
 84 -3.01958508256629286e-04
 85  1.64379738106555428e-04
 86  0.00000000000000000e+00
 Sym= A1
 Ene= -1.29522228069555712e+00
 Spin= Alpha
 Occup=  1.00000000000000000e+00
  1  1.18135505878903674e-02
  2 -4.74800133748517816e-01
  3 -9.93227303043873605e-02
  4 -1.75656036199686866e-01
  5  0.00000000000000000e+00
  6  0.00000000000000000e+00
  7  1.05373329216105083e-02
  8  0.00000000000000000e+00
  9  0.00000000000000000e+00
 10  1.76489679465940234e-02
 11  0.00000000000000000e+00
 12  0.00000000000000000e+00
 13  7.65668198990505748e-03
 14 -7.73651723372651692e-04
 15  0.00000000000000000e+00
 16  0.00000000000000000e+00
 17 -2.65975183383620356e-04
 18  0.00000000000000000e+00
 19 -1.98359817949581929e-03
 20  0.00000000000000000e+00
 21  0.00000000000000000e+00
 22  1.20371340958247316e-04
 23  0.00000000000000000e+00
 24  2.47535836462118490e-04
 25  0.00000000000000000e+00
 26  0.00000000000000000e+00
 27 -9.10470471468128630e-03
 28  0.00000000000000000e+00
 29  0.00000000000000000e+00
 30  0.00000000000000000e+00
 31 -7.64899392210069279e-02
 32 -8.78185423688288835e-02
 33 -3.58780405953479375e-03
 34  6.50163750068055452e-03
 35  0.00000000000000000e+00
 36  4.89233266430146377e-03
 37  6.25829661860466489e-03
 38  0.00000000000000000e+00
 39  4.99558102737645421e-03
 40 -4.64411528829053555e-05
 41 -1.19842802617625309e-03
 42  0.00000000000000000e+00
 43 -7.55119796210766757e-04
 44  0.00000000000000000e+00
 45 -7.64899392210069279e-02
 46 -8.78185423688288835e-02
 47 -3.58780405953479375e-03
 48 -6.50163750068055452e-03
 49  0.00000000000000000e+00
 50  4.89233266430146377e-03
 51 -6.25829661860466489e-03
 52  0.00000000000000000e+00
 53  4.99558102737645421e-03
 54 -4.64411528829053555e-05
 55  1.19842802617625309e-03
 56  0.00000000000000000e+00
 57 -7.55119796210766757e-04
 58  0.00000000000000000e+00
 59 -8.58575014344572507e-02
 60 -9.63767175635433376e-02
 61  7.72346735626983300e-04
 62  0.00000000000000000e+00
 63  7.88448891046794435e-03
 64 -5.43369434083130261e-03
 65  0.00000000000000000e+00
 66  8.87127174128328651e-03
 67 -4.35768529733537684e-03
 68  2.96708234280551406e-05
 69  0.00000000000000000e+00
 70  1.68655912035302487e-03
 71  1.26266276509210979e-03
 72  0.00000000000000000e+00
 73 -8.58575014344572507e-02
 74 -9.63767175635433376e-02
 75  7.72346735626983300e-04
 76  0.00000000000000000e+00
 77 -7.88448891046794435e-03
 78 -5.43369434083130261e-03
 79  0.00000000000000000e+00
 80 -8.87127174128328651e-03
 81 -4.35768529733537684e-03
 82  2.96708234280551406e-05
 83  0.00000000000000000e+00
 84 -1.68655912035302487e-03
 85  1.26266276509210979e-03
 86  0.00000000000000000e+00
 Sym= A1
 Ene= -9.01354320961143651e-01
 Spin= Alpha
 Occup=  1.00000000000000000e+00
  1 -1.46874893506137883e-04
  2  2.55968276554231419e-02
  3  6.00386815477182631e-03
  4  2.97558106709199313e-02
  5  0.00000000000000000e+00
  6  0.00000000000000000e+00
  7  2.58354209840994720e-01
  8  0.00000000000000000e+00
  9  0.00000000000000000e+00
 10  3.18511220304751985e-01
 11  0.00000000000000000e+00
 12  0.00000000000000000e+00
 13  1.25410830154621233e-01
 14 -3.35627350923342095e-03
 15  0.00000000000000000e+00
 16  0.00000000000000000e+00
 17  1.75046135318158054e-02
 18  0.00000000000000000e+00
 19 -1.09773552919909343e-02
 20  0.00000000000000000e+00
 21  0.00000000000000000e+00
 22  1.51022484630132670e-02
 23  0.00000000000000000e+00
 24 -1.63672394590949036e-03
 25  0.00000000000000000e+00
 26  0.00000000000000000e+00
 27 -2.43758527723297001e-03
 28  0.00000000000000000e+00
 29  0.00000000000000000e+00
 30  0.00000000000000000e+00
 31  1.01124954713020646e-01
 32  1.58473701551395812e-01
 33  2.57372677502480281e-02
 34 -1.04686261345201138e-02
 35  0.00000000000000000e+00
 36 -2.50882938303002411e-03
 37 -1.81136749265588329e-02
 38  0.00000000000000000e+00
 39 -2.80970106763316074e-03
 40 -1.55539851256698814e-03
 41  1.98753026451081033e-03
 42  0.00000000000000000e+00
 43  2.55133704344429882e-03
 44  0.00000000000000000e+00
 45  1.01124954713020646e-01
 46  1.58473701551395812e-01
 47  2.57372677502480281e-02
 48  1.04686261345201138e-02
 49  0.00000000000000000e+00
 50 -2.50882938303002411e-03
 51  1.81136749265588329e-02
 52  0.00000000000000000e+00
 53 -2.80970106763316074e-03
 54 -1.55539851256698814e-03
 55 -1.98753026451081033e-03
 56  0.00000000000000000e+00
 57  2.55133704344429882e-03
 58  0.00000000000000000e+00
 59 -1.01232441911580442e-01
 60 -1.66975545828359634e-01
 61 -2.85903556505476136e-02
 62  0.00000000000000000e+00
 63  1.01164668442013730e-02
 64 -2.16835832743047076e-03
 65  0.00000000000000000e+00
 66  1.89978396344038444e-02
 67 -4.07791575786753901e-04
 68  1.47600136804597500e-03
 69  0.00000000000000000e+00
 70  1.66883874281301115e-03
 71  2.89229803530132498e-03
 72  0.00000000000000000e+00
 73 -1.01232441911580442e-01
 74 -1.66975545828359634e-01
 75 -2.85903556505476136e-02
 76  0.00000000000000000e+00
 77 -1.01164668442013730e-02
 78 -2.16835832743047076e-03
 79  0.00000000000000000e+00
 80 -1.89978396344038444e-02
 81 -4.07791575786753901e-04
 82  1.47600136804597500e-03
 83  0.00000000000000000e+00
 84 -1.66883874281301115e-03
 85  2.89229803530132498e-03
 86  0.00000000000000000e+00
 Sym= B1
 Ene= -8.90032949446520449e-01
 Spin= Alpha
 Occup=  1.00000000000000000e+00
  1  0.00000000000000000e+00
  2  0.00000000000000000e+00
  3  0.00000000000000000e+00
  4  0.00000000000000000e+00
  5  2.63058396793418858e-01
  6  0.00000000000000000e+00
  7  0.00000000000000000e+00
  8  3.28257889005309056e-01
  9  0.00000000000000000e+00
 10  0.00000000000000000e+00
 11  1.35475825931621163e-01
 12  0.00000000000000000e+00
 13  0.00000000000000000e+00
 14  0.00000000000000000e+00
 15  1.55171385059183417e-02
 16  0.00000000000000000e+00
 17  0.00000000000000000e+00
 18  0.00000000000000000e+00
 19  0.00000000000000000e+00
 20  1.56628625561481133e-02
 21  0.00000000000000000e+00
 22  0.00000000000000000e+00
 23  0.00000000000000000e+00
 24  0.00000000000000000e+00
 25 -4.30049305323697479e-04
 26  0.00000000000000000e+00
 27  0.00000000000000000e+00
 28  0.00000000000000000e+00
 29 -2.99201445780210209e-03
 30  0.00000000000000000e+00
 31  1.37409238499750730e-01
 32  2.17527733613031127e-01
 33  3.72477337049139309e-02
 34 -9.15324362930505439e-03
 35  0.00000000000000000e+00
 36 -1.01973206906514104e-02
 37 -1.36124076409319672e-02
 38  0.00000000000000000e+00
 39 -1.89586306454714790e-02
 40  1.02751740631187491e-03
 41  4.11471080558298719e-03
 42  0.00000000000000000e+00
 43  1.49534860310775826e-03
 44  0.00000000000000000e+00
 45 -1.37409238499750730e-01
 46 -2.17527733613031127e-01
 47 -3.72477337049139309e-02
 48 -9.15324362930505439e-03
 49  0.00000000000000000e+00
 50  1.01973206906514104e-02
 51 -1.36124076409319672e-02
 52  0.00000000000000000e+00
 53  1.89586306454714790e-02
 54 -1.02751740631187491e-03
 55  4.11471080558298719e-03
 56  0.00000000000000000e+00
 57 -1.49534860310775826e-03
 58  0.00000000000000000e+00
 59  0.00000000000000000e+00
 60  0.00000000000000000e+00
 61  0.00000000000000000e+00
 62  5.33326450378138282e-03
 63  0.00000000000000000e+00
 64  0.00000000000000000e+00
 65  1.45066832793996764e-02
 66  0.00000000000000000e+00
 67  0.00000000000000000e+00
 68  0.00000000000000000e+00
 69  1.71968395793495104e-03
 70  0.00000000000000000e+00
 71  0.00000000000000000e+00
 72 -1.97540316243703749e-03
 73  0.00000000000000000e+00
 74  0.00000000000000000e+00
 75  0.00000000000000000e+00
 76  5.33326450378138282e-03
 77  0.00000000000000000e+00
 78  0.00000000000000000e+00
 79  1.45066832793996764e-02
 80  0.00000000000000000e+00
 81  0.00000000000000000e+00
 82  0.00000000000000000e+00
 83  1.71968395793495104e-03
 84  0.00000000000000000e+00
 85  0.00000000000000000e+00
 86  1.97540316243703749e-03
 Sym= B2
 Ene= -7.17188019596184390e-01
 Spin= Alpha
 Occup=  1.00000000000000000e+00
  1  0.00000000000000000e+00
  2  0.00000000000000000e+00
  3  0.00000000000000000e+00
  4  0.00000000000000000e+00
  5  0.00000000000000000e+00
  6  2.48868126455677463e-01
  7  0.00000000000000000e+00
  8  0.00000000000000000e+00
  9  3.12815179500874230e-01
 10  0.00000000000000000e+00
 11  0.00000000000000000e+00
 12  9.27777929615807018e-02
 13  0.00000000000000000e+00
 14  0.00000000000000000e+00
 15  0.00000000000000000e+00
 16 -2.39821531112934978e-02
 17  0.00000000000000000e+00
 18  0.00000000000000000e+00
 19  0.00000000000000000e+00
 20  0.00000000000000000e+00
 21 -3.10509507183253548e-02
 22  0.00000000000000000e+00
 23  0.00000000000000000e+00
 24  0.00000000000000000e+00
 25  0.00000000000000000e+00
 26 -1.82720462099222772e-03
 27  0.00000000000000000e+00
 28  0.00000000000000000e+00
 29  0.00000000000000000e+00
 30 -6.83118186197217200e-03
 31  0.00000000000000000e+00
 32  0.00000000000000000e+00
 33  0.00000000000000000e+00
 34  0.00000000000000000e+00
 35  4.62920157200938810e-03
 36  0.00000000000000000e+00
 37  0.00000000000000000e+00
 38  8.98461388304059964e-03
 39  0.00000000000000000e+00
 40  0.00000000000000000e+00
 41  0.00000000000000000e+00
 42 -1.27043169243105979e-03
 43  0.00000000000000000e+00
 44 -1.97280464682654012e-03
 45  0.00000000000000000e+00
 46  0.00000000000000000e+00
 47  0.00000000000000000e+00
 48  0.00000000000000000e+00
 49  4.62920157200938810e-03
 50  0.00000000000000000e+00
 51  0.00000000000000000e+00
 52  8.98461388304059964e-03
 53  0.00000000000000000e+00
 54  0.00000000000000000e+00
 55  0.00000000000000000e+00
 56 -1.27043169243105979e-03
 57  0.00000000000000000e+00
 58  1.97280464682654012e-03
 59  1.59388470085129103e-01
 60  2.44478412790933491e-01
 61  3.29026354376603797e-02
 62  0.00000000000000000e+00
 63 -1.06709523409202426e-02
 64  1.26435517640782358e-02
 65  0.00000000000000000e+00
 66 -1.14905882423614047e-02
 67  2.21299653511994182e-02
 68  1.78934787145600929e-03
 69  0.00000000000000000e+00
 70 -4.67711711502011643e-03
 71 -1.95879234116313680e-03
 72  0.00000000000000000e+00
 73 -1.59388470085129103e-01
 74 -2.44478412790933491e-01
 75 -3.29026354376603797e-02
 76  0.00000000000000000e+00
 77 -1.06709523409202426e-02
 78 -1.26435517640782358e-02
 79  0.00000000000000000e+00
 80 -1.14905882423614047e-02
 81 -2.21299653511994182e-02
 82 -1.78934787145600929e-03
 83  0.00000000000000000e+00
 84 -4.67711711502011643e-03
 85  1.95879234116313680e-03
 86  0.00000000000000000e+00
 Sym= A1
 Ene= -9.23553479315346731e-02
 Spin= Alpha
 Occup=  0.00000000000000000e+00
  1  2.74336962679431820e-02
  2  3.01585126233663403e-01
  3  6.53817150418533610e-02
  4  2.89336574739563934e+00
  5  0.00000000000000000e+00
  6  0.00000000000000000e+00
  7 -2.95807049120325530e-02
  8  0.00000000000000000e+00
  9  0.00000000000000000e+00
 10 -5.55745886066840653e-02
 11  0.00000000000000000e+00
 12  0.00000000000000000e+00
 13 -1.91178928916891561e-01
 14 -3.39159257349089965e-04
 15  0.00000000000000000e+00
 16  0.00000000000000000e+00
 17  1.02722568427852378e-04
 18  0.00000000000000000e+00
 19 -2.44369082102498377e-03
 20  0.00000000000000000e+00
 21  0.00000000000000000e+00
 22 -6.45744914941380043e-03
 23  0.00000000000000000e+00
 24 -2.84002789330302708e-05
 25  0.00000000000000000e+00
 26  0.00000000000000000e+00
 27  1.60310150430833277e-02
 28  0.00000000000000000e+00
 29  0.00000000000000000e+00
 30  0.00000000000000000e+00
 31 -2.53021480659043575e-03
 32 -1.52965187386392226e-01
 33 -7.28927087270016427e-01
 34 -7.21902811664304044e-03
 35  0.00000000000000000e+00
 36 -6.61915261097145539e-03
 37  6.57713352000807161e-02
 38  0.00000000000000000e+00
 39  5.08935010989804634e-02
 40  1.58465612717412365e-04
 41 -3.66741744111589345e-03
 42  0.00000000000000000e+00
 43 -2.32228884782789344e-03
 44  0.00000000000000000e+00
 45 -2.53021480659043575e-03
 46 -1.52965187386392226e-01
 47 -7.28927087270016427e-01
 48  7.21902811664304044e-03
 49  0.00000000000000000e+00
 50 -6.61915261097145539e-03
 51 -6.57713352000807161e-02
 52  0.00000000000000000e+00
 53  5.08935010989804634e-02
 54  1.58465612717412365e-04
 55  3.66741744111589345e-03
 56  0.00000000000000000e+00
 57 -2.32228884782789344e-03
 58  0.00000000000000000e+00
 59 -9.07554094640519900e-03
 60 -1.77209823765222096e-01
 61 -1.16558896007927659e+00
 62  0.00000000000000000e+00
 63 -1.22547942755403885e-02
 64  7.71067737844695084e-03
 65  0.00000000000000000e+00
 66  7.19684869391088861e-02
 67 -5.45103894990814145e-02
 68 -2.38480232288336197e-04
 69  0.00000000000000000e+00
 70  3.74378807206459654e-03
 71  2.73617348681091943e-03
 72  0.00000000000000000e+00
 73 -9.07554094640519900e-03
 74 -1.77209823765222096e-01
 75 -1.16558896007927659e+00
 76  0.00000000000000000e+00
 77  1.22547942755403885e-02
 78  7.71067737844695084e-03
 79  0.00000000000000000e+00
 80 -7.19684869391088861e-02
 81 -5.45103894990814145e-02
 82 -2.38480232288336197e-04
 83  0.00000000000000000e+00
 84 -3.74378807206459654e-03
 85  2.73617348681091943e-03
 86  0.00000000000000000e+00
 Sym= B2
 Ene= -1.83629567797525366e-02
 Spin= Alpha
 Occup=  0.00000000000000000e+00
  1  0.00000000000000000e+00
  2  0.00000000000000000e+00
  3  0.00000000000000000e+00
  4  0.00000000000000000e+00
  5  0.00000000000000000e+00
  6  1.53652543582801421e-01
  7  0.00000000000000000e+00
  8  0.00000000000000000e+00
  9  3.79067571488146182e-01
 10  0.00000000000000000e+00
 11  0.00000000000000000e+00
 12  1.56871605695946759e+00
 13  0.00000000000000000e+00
 14  0.00000000000000000e+00
 15  0.00000000000000000e+00
 16  9.29625173877296658e-03
 17  0.00000000000000000e+00
 18  0.00000000000000000e+00
 19  0.00000000000000000e+00
 20  0.00000000000000000e+00
 21 -8.04951057671249304e-02
 22  0.00000000000000000e+00
 23  0.00000000000000000e+00
 24  0.00000000000000000e+00
 25  0.00000000000000000e+00
 26 -7.31485672602589327e-04
 27  0.00000000000000000e+00
 28  0.00000000000000000e+00
 29  0.00000000000000000e+00
 30 -3.81639850350182002e-03
 31  0.00000000000000000e+00
 32  0.00000000000000000e+00
 33  0.00000000000000000e+00
 34  0.00000000000000000e+00
 35  1.03195269800534454e-02
 36  0.00000000000000000e+00
 37  0.00000000000000000e+00
 38 -1.76453635822066829e-02
 39  0.00000000000000000e+00
 40  0.00000000000000000e+00
 41  0.00000000000000000e+00
 42  1.37973971234591083e-03
 43  0.00000000000000000e+00
 44 -1.93683442373434396e-03
 45  0.00000000000000000e+00
 46  0.00000000000000000e+00
 47  0.00000000000000000e+00
 48  0.00000000000000000e+00
 49  1.03195269800534454e-02
 50  0.00000000000000000e+00
 51  0.00000000000000000e+00
 52 -1.76453635822066829e-02
 53  0.00000000000000000e+00
 54  0.00000000000000000e+00
 55  0.00000000000000000e+00
 56  1.37973971234591083e-03
 57  0.00000000000000000e+00
 58  1.93683442373434396e-03
 59 -3.59186002846034677e-02
 60 -2.40988083941658576e-01
 61 -2.12961996828404132e+00
 62  0.00000000000000000e+00
 63 -9.75126743024906477e-03
 64  1.40880890696584698e-02
 65  0.00000000000000000e+00
 66  8.31249819554327890e-02
 67 -6.72084067260469292e-02
 68  1.49530192525009083e-03
 69  0.00000000000000000e+00
 70  6.76974829890346526e-03
 71  3.47411333926393728e-03
 72  0.00000000000000000e+00
 73  3.59186002846034677e-02
 74  2.40988083941658576e-01
 75  2.12961996828404132e+00
 76  0.00000000000000000e+00
 77 -9.75126743024906477e-03
 78 -1.40880890696584698e-02
 79  0.00000000000000000e+00
 80  8.31249819554327890e-02
 81  6.72084067260469292e-02
 82 -1.49530192525009083e-03
 83  0.00000000000000000e+00
 84  6.76974829890346526e-03
 85 -3.47411333926393728e-03
 86  0.00000000000000000e+00
 Sym= A1
 Ene= -1.18530678735566369e-02
 Spin= Alpha
 Occup=  0.00000000000000000e+00
  1  6.27519866180811965e-03
  2  4.83507363861635717e-02
  3  1.23574904363147903e-02
  4  4.88968542150391150e-01
  5  0.00000000000000000e+00
  6  0.00000000000000000e+00
  7  1.53708070660750012e-01
  8  0.00000000000000000e+00
  9  0.00000000000000000e+00
 10  3.90994185890553403e-01
 11  0.00000000000000000e+00
 12  0.00000000000000000e+00
 13  1.57467070173512158e+00
 14 -1.83529671344165118e-03
 15  0.00000000000000000e+00
 16  0.00000000000000000e+00
 17 -1.02994634529899216e-02
 18  0.00000000000000000e+00
 19  1.25489630593760742e-03
 20  0.00000000000000000e+00
 21  0.00000000000000000e+00
 22  8.54734606786271556e-02
 23  0.00000000000000000e+00
 24 -4.51231492065202935e-03
 25  0.00000000000000000e+00
 26  0.00000000000000000e+00
 27  1.61403280614353653e-04
 28  0.00000000000000000e+00
 29  0.00000000000000000e+00
 30  0.00000000000000000e+00
 31 -2.48466315143607563e-02
 32 -2.13772902633176776e-01
 33 -1.64707211286171429e+00
 34 -1.60836261153157398e-02
 35  0.00000000000000000e+00
 36 -7.99729242729873635e-04
 37  1.00756628697231412e-01
 38  0.00000000000000000e+00
 39  5.01518573399364065e-02
 40 -1.37252316249536531e-03
 41 -4.70706501212046075e-03
 42  0.00000000000000000e+00
 43 -5.33659675433355470e-03
 44  0.00000000000000000e+00
 45 -2.48466315143607563e-02
 46 -2.13772902633176776e-01
 47 -1.64707211286171429e+00
 48  1.60836261153157398e-02
 49  0.00000000000000000e+00
 50 -7.99729242729873635e-04
 51 -1.00756628697231412e-01
 52  0.00000000000000000e+00
 53  5.01518573399364065e-02
 54 -1.37252316249536531e-03
 55  4.70706501212046075e-03
 56  0.00000000000000000e+00
 57 -5.33659675433355470e-03
 58  0.00000000000000000e+00
 59  2.86921348018998462e-02
 60  1.89957938549234095e-01
 61  1.31355601941583422e+00
 62  0.00000000000000000e+00
 63  1.18486612554067026e-02
 64  2.50076650745595245e-03
 65  0.00000000000000000e+00
 66 -5.37452508181973862e-02
 67  3.65120526200268733e-02
 68  2.70398856177262500e-03
 69  0.00000000000000000e+00
 70 -3.45053930150125785e-03
 71 -4.28293454597890918e-03
 72  0.00000000000000000e+00
 73  2.86921348018998462e-02
 74  1.89957938549234095e-01
 75  1.31355601941583422e+00
 76  0.00000000000000000e+00
 77 -1.18486612554067026e-02
 78  2.50076650745595245e-03
 79  0.00000000000000000e+00
 80  5.37452508181973862e-02
 81  3.65120526200268733e-02
 82  2.70398856177262500e-03
 83  0.00000000000000000e+00
 84  3.45053930150125785e-03
 85 -4.28293454597890918e-03
 86  0.00000000000000000e+00
 Sym= B1
 Ene= -4.31279081981709306e-03
 Spin= Alpha
 Occup=  0.00000000000000000e+00
  1  0.00000000000000000e+00
  2  0.00000000000000000e+00
  3  0.00000000000000000e+00
  4  0.00000000000000000e+00
  5  1.52319041141754707e-01
  6  0.00000000000000000e+00
  7  0.00000000000000000e+00
  8  3.97734912664664986e-01
  9  0.00000000000000000e+00
 10  0.00000000000000000e+00
 11  1.60761612563723211e+00
 12  0.00000000000000000e+00
 13  0.00000000000000000e+00
 14  0.00000000000000000e+00
 15 -1.26344475842007416e-02
 16  0.00000000000000000e+00
 17  0.00000000000000000e+00
 18  0.00000000000000000e+00
 19  0.00000000000000000e+00
 20  7.70258633721481595e-02
 21  0.00000000000000000e+00
 22  0.00000000000000000e+00
 23  0.00000000000000000e+00
 24  0.00000000000000000e+00
 25  1.61472446869393620e-03
 26  0.00000000000000000e+00
 27  0.00000000000000000e+00
 28  0.00000000000000000e+00
 29  1.15233855332993801e-03
 30  0.00000000000000000e+00
 31 -4.06411071473381236e-02
 32 -2.98373831156279190e-01
 33 -2.12293930790508112e+00
 34 -8.96607401603147572e-03
 35  0.00000000000000000e+00
 36 -1.42196318468707436e-02
 37  1.02463716143548988e-01
 38  0.00000000000000000e+00
 39  8.91693992048679940e-02
 40  1.11976174896077549e-03
 41 -8.41159864467277453e-03
 42  0.00000000000000000e+00
 43 -4.03395034611403903e-03
 44  0.00000000000000000e+00
 45  4.06411071473381236e-02
 46  2.98373831156279190e-01
 47  2.12293930790508112e+00
 48 -8.96607401603147572e-03
 49  0.00000000000000000e+00
 50  1.42196318468707436e-02
 51  1.02463716143548988e-01
 52  0.00000000000000000e+00
 53 -8.91693992048679940e-02
 54 -1.11976174896077549e-03
 55 -8.41159864467277453e-03
 56  0.00000000000000000e+00
 57  4.03395034611403903e-03
 58  0.00000000000000000e+00
 59  0.00000000000000000e+00
 60  0.00000000000000000e+00
 61  0.00000000000000000e+00
 62  1.12430048632984527e-02
 63  0.00000000000000000e+00
 64  0.00000000000000000e+00
 65 -7.75570986713386510e-03
 66  0.00000000000000000e+00
 67  0.00000000000000000e+00
 68  0.00000000000000000e+00
 69 -2.00953340176861098e-03
 70  0.00000000000000000e+00
 71  0.00000000000000000e+00
 72 -2.64160045334914861e-03
 73  0.00000000000000000e+00
 74  0.00000000000000000e+00
 75  0.00000000000000000e+00
 76  1.12430048632984527e-02
 77  0.00000000000000000e+00
 78  0.00000000000000000e+00
 79 -7.75570986713386510e-03
 80  0.00000000000000000e+00
 81  0.00000000000000000e+00
 82  0.00000000000000000e+00
 83 -2.00953340176861098e-03
 84  0.00000000000000000e+00
 85  0.00000000000000000e+00
 86  2.64160045334914861e-03
 Sym= B2
 Ene=  8.80830811741633857e-02
 Spin= Alpha
 Occup=  0.00000000000000000e+00
  1  0.00000000000000000e+00
  2  0.00000000000000000e+00
  3  0.00000000000000000e+00
  4  0.00000000000000000e+00
  5  0.00000000000000000e+00
  6  6.17572120088587390e-02
  7  0.00000000000000000e+00
  8  0.00000000000000000e+00
  9 -3.90262882645119769e-01
 10  0.00000000000000000e+00
 11  0.00000000000000000e+00
 12 -1.89236088238476130e+00
 13  0.00000000000000000e+00
 14  0.00000000000000000e+00
 15  0.00000000000000000e+00
 16 -1.19535383502495512e-02
 17  0.00000000000000000e+00
 18  0.00000000000000000e+00
 19  0.00000000000000000e+00
 20  0.00000000000000000e+00
 21  3.63272806141504923e-01
 22  0.00000000000000000e+00
 23  0.00000000000000000e+00
 24  0.00000000000000000e+00
 25  0.00000000000000000e+00
 26 -2.56569431757236802e-02
 27  0.00000000000000000e+00
 28  0.00000000000000000e+00
 29  0.00000000000000000e+00
 30  3.13032481740423904e-02
 31  0.00000000000000000e+00
 32  0.00000000000000000e+00
 33  0.00000000000000000e+00
 34  0.00000000000000000e+00
 35 -1.62958871882445192e-02
 36  0.00000000000000000e+00
 37  0.00000000000000000e+00
 38  2.04787267144011000e-02
 39  0.00000000000000000e+00
 40  0.00000000000000000e+00
 41  0.00000000000000000e+00
 42 -7.45260372617854560e-03
 43  0.00000000000000000e+00
 44  5.42522607380155862e-03
 45  0.00000000000000000e+00
 46  0.00000000000000000e+00
 47  0.00000000000000000e+00
 48  0.00000000000000000e+00
 49 -1.62958871882445192e-02
 50  0.00000000000000000e+00
 51  0.00000000000000000e+00
 52  2.04787267144011000e-02
 53  0.00000000000000000e+00
 54  0.00000000000000000e+00
 55  0.00000000000000000e+00
 56 -7.45260372617854560e-03
 57  0.00000000000000000e+00
 58 -5.42522607380155862e-03
 59  4.85015286928424105e-02
 60  1.38638541042775376e+00
 61  2.01336263761557221e-01
 62  0.00000000000000000e+00
 63 -2.58666246240044882e-02
 64  8.89565239601732352e-03
 65  0.00000000000000000e+00
 66 -2.19607428507237357e-01
 67  1.49521342534641832e-01
 68 -3.85753155503255982e-03
 69  0.00000000000000000e+00
 70 -2.39957035724963873e-02
 71 -1.11851637613776637e-02
 72  0.00000000000000000e+00
 73 -4.85015286928424105e-02
 74 -1.38638541042775376e+00
 75 -2.01336263761557221e-01
 76  0.00000000000000000e+00
 77 -2.58666246240044882e-02
 78 -8.89565239601732352e-03
 79  0.00000000000000000e+00
 80 -2.19607428507237357e-01
 81 -1.49521342534641832e-01
 82  3.85753155503255982e-03
 83  0.00000000000000000e+00
 84 -2.39957035724963873e-02
 85  1.11851637613776637e-02
 86  0.00000000000000000e+00
 Sym= B1
 Ene=  9.50360810858799365e-02
 Spin= Alpha
 Occup=  0.00000000000000000e+00
  1  0.00000000000000000e+00
  2  0.00000000000000000e+00
  3  0.00000000000000000e+00
  4  0.00000000000000000e+00
  5  1.00837793691970448e-01
  6  0.00000000000000000e+00
  7  0.00000000000000000e+00
  8 -3.72370812168733412e-01
  9  0.00000000000000000e+00
 10  0.00000000000000000e+00
 11 -1.92274125388956718e+00
 12  0.00000000000000000e+00
 13  0.00000000000000000e+00
 14  0.00000000000000000e+00
 15  9.31056935668572380e-03
 16  0.00000000000000000e+00
 17  0.00000000000000000e+00
 18  0.00000000000000000e+00
 19  0.00000000000000000e+00
 20 -4.07819209682663053e-01
 21  0.00000000000000000e+00
 22  0.00000000000000000e+00
 23  0.00000000000000000e+00
 24  0.00000000000000000e+00
 25 -2.77442055688868275e-02