[Molden Format]
[Molpro variables]
_NUMVAR=  784.0000000000000    
_AVOGAD= 0.6022136736000000E+24
_BOLTZ= 0.1380658000000000E-22
_CLIGHT=  29979245800.00000    
_EV2006= 0.3674930886769165E-01
_EV= 0.3674932534394180E-01
_ENULL= 0.8854187817000000E-11
_KJOULE= 0.3808798324128737E-03
_KJOULE/MOL= 0.3808798324128737E-03
_CM= 0.4556335267302901E-05
_CM-1= 0.4556335267302901E-05
_DEB2SI= 0.3335641000000000E-29
_AMU2AU=  1822.888390000000    
_KCAL= 0.1593601117815568E-02
_KCAL/MOL= 0.1593601117815568E-02
_KELVIN2006= 0.3166828861084835E-05
_KELVIN= 0.3166814820820034E-05
_JOULE= 0.4359748200000000E-17
_HERTZ2006= 0.1519829850815779E-15
_HERTZ= 0.1519829846011223E-15
_HZ2006= 0.1519829850815779E-15
_HZ= 0.1519829846011223E-15
_JPCAL=  4.184000000000000    
_PLANCK= 0.6626075540000000E-33
_TOA2006= 0.5291772490000000    
_TOA= 0.5291772090000000    
_TOANG2006= 0.5291772490000000    
_TOANG= 0.5291772090000000    
_TORAD= 0.1745329251994330E-01
_TOCM=  219474.6306700000    
_TODEBYE=  2.541580000000000    
_TOEV2006=  27.21139610000000    
_TOE= 0.4803242000000000E-09
_TOEV=  27.21138390000000    
_TOHERTZ2006=  6579683899900000.    
_TOHERTZ=  6579683920700000.    
_TOHZ2006=  6579683899900000.    
_TOHZ=  6579683920700000.    
_TOK2006=  315773.3000000000    
_TOK=  315774.7000000000    
_TOKCAL=  627.5096000000000    
_TOKELVIN2006=  315773.3000000000    
_TOKELVIN=  315774.7000000000    
_TOKJ=  2625.500000000000    
_TOKJOULE=  2625.500000000000    
_TOKG= 0.1660565586000000E-26
_ANG2006=  1.889725988578923    
_ANG=  1.889726131421507    
_ANGSTROM2006=  1.889725988578923    
_ANGSTROM=  1.889726131421507    
_RPAREF=  0.000000000000000    
_RPADISS=  0.000000000000000    
_IGNORE_UNDEF=  2.000000000000000    
_STRICTCHECK=  0.000000000000000    
_SEW_ONEEL=  0.000000000000000    
_CPPDONE=FALSE
_DKROLL_DONE=  0.000000000000000    
_FOCKDONE=TRUE
_GRADONE=FALSE
_HESSDONE=FALSE
_INTDONE=TRUE
_SCFDONE=TRUE
_MODUL_BLOCK=FALSE
_MODUL_CUDA=FALSE
_MODUL_SLATER=FALSE
_MODUL_MRCC=FALSE
_MODUL_NBO6=FALSE
_MODUL_NECI=TRUE
_MODUL_AIMS=TRUE
_MRCC_EXEC=
_FITC_AO_SAVED=FALSE
_FITC_MO_SAVED=FALSE
_SHARED_FS=TRUE
_LSTYP=SEWARD
_INTYP=INTS
_GEOMTYP=ZMAT
_GRADTYP=ALASKA
_DIRECT=FALSE
_DKHO= -1.000000000000000    
_SYNCM=  0.000000000000000    
_BASIS=USERDEF
_ZORIENT=  1.000000000000000    
_NELEC=  18.00000000000000    
!SPIN=  0.000000000000000    
_QSDSTEP=  0.000000000000000    
_QSDIRC=  0.000000000000000    
_PROGRAM=HF-SCF
_CPUSTEP= 0.6000000000000000E-01
_SYSSTEP= 0.1000000000000001E-01
_WALLSTEP= 0.3900000000000000    
!DFSCF=  0.000000000000000    
!SCSGRD=  0.000000000000000    
_BASINP=  610.0000000000000    
_CPUTOT= 0.3600000000000000    
_CPUSORT= 0.4999999999999999E-01
_SYSSORT= 0.6999999999999999E-01
_WALLSORT= 0.1600000001490116    
_DFTEXFAC=  1.000000000000000    
_DMX=  0.000000000000000    
_DMY=  0.000000000000000    
_DMZ= 0.7443828750743386    
_DMX_SCF=  0.000000000000000    
_DMY_SCF=  0.000000000000000    
_DMZ_SCF= 0.7443828750743386    
_EHOMO=-0.4665071449528893    
_ELUMO= 0.1919357610500780    
_ENERGY= -150.7867668270450    
_ENUC=  38.06106386395650    
_EPS1= -20.61667115142785    
_EPS2= -20.61633259179552    
_GRADEXFAC=  9999.000000000000    
_GRADMETHOD=  1.000000000000000    
_NMRMETHOD=  0.000000000000000    
!GRID_FREEZE= -1.000000000000000    
_ITERATIONS=  9.000000000000000    
_LASTNELEC=  18.00000000000000    
_LASTSPIN=  0.000000000000000    
_LASTSYM=  1.000000000000000    
_MPP_PROG=  0.000000000000000    
_NPROC_MPP=  1.000000000000000    
_NPROC_MPPX=  1.000000000000000    
_NPROC_SMP=  16.00000000000000    
_NUMSTEP=  0.000000000000000    
_ORBITAL=  2100.200000000000    
_PI=  3.141592653589793    
_SEIG_MIN= 0.2212598707150847E-01
_SEWPROP=TRUE
_STATUS=  1.000000000000000    
_SYSTOT= 0.1200000000000000    
_VERSION=  2012001.000000000    
_WALLTOT=  2.170000000000000    
_DATE=24-Jan-19
_LASTORB=RHF
_MACHINE=Linux-4.9.0-8-amd64/nympha18.meta.zcu.cz(x86_64) (16 PROC) 64 bit serial version
_OUTPUT=/auto/brno2/home/masiz4am/git/UKRmol-in/tests/suite/C2_scattering_SEP/molpro.xml
_PGROUP=C2
_TIME=16:40:36
_LIBMOL=/afs/ics.muni.cz/software/molpro-2012.1/molprop_2012_1_Linux_x86_64_i8/lib/
!VIBCNT=  0.000000000000000    
!RGHFCNT=  0.000000000000000    
!SURFREC=  0.000000000000000    
!POLYREC=  0.000000000000000    
!DIPREC=  0.000000000000000    
!VSCFREC=  0.000000000000000    
!VCIREC=  0.000000000000000    
!PVCIREC=  0.000000000000000    
!VMP2REC=  0.000000000000000    
!VMCSCFREC=  0.000000000000000    
!VMRCIREC=  0.000000000000000    
!VIBINFO=  0.000000000000000    
!GAREC=  0.000000000000000    
!SCFORB=  21002.00000000000    
!NEWMOL= -1.000000000000000    
!NEWSYM= -1.000000000000000    
_SLFILES=slscratch
_NGSSTO=  9.000000000000000    
_SIN=SIN
_COS=COS
_TAN=TAN
_ACOS=ACOS
_ASIN=ASIN
_ATAN=ATAN
_COSH=COSH
_SINH=SINH
_TANH=TANH
_ABS=ABS
_MOD=MOD
_ERF=ERF
_REFC=REFC
_ERFC=ERFC
_HYPOT=HYPOT
_J0=J0
_J1=J1
_JN=JN
_GAMMA=GAMMA
_LGAMMA=LGAMMA
_Y0=Y0
_Y1=Y1
_YN=YN
_EXP=EXP
_LOG=LOG
_LOG10=LOG10
_SQRT=SQRT
_INT=INT
_NINT=NINT
_MAX=MAX
_MIN=MIN
_COSMO=  0.000000000000000    
_COSMOIT=  0.000000000000000    
_COSMOES=  0.000000000000000    
_COSMOEDS=  0.000000000000000    
_COSMOEC=  0.000000000000000    
_COSMOEDCORR=  0.000000000000000    
_FEPSI=  1.000000000000000    
_SL_IsMM=  0.000000000000000    
_SL_NSYM=  2.000000000000000    
_SL_System_BitSw=  0.000000000000000    
_SL_Unique_atoms=  0.000000000000000    
_SL_GRAD=  0.000000000000000    
_SL_MAXUPD_Hess=  5.000000000000000    
_SL_N_PRINT_COD=  5.000000000000000    
_SL_PRINT_CODES=  0.000000000000000    
_SL_BasType=  0.000000000000000    
_SL_Energy_Pred=  0.000000000000000    
_SL_New_Coords=  0.000000000000000    
_SL_Total_Nuclea=  0.000000000000000    
_SL_Highest_Mltp=  0.000000000000000    
_SL_Ref_Geom=  0.000000000000000    
_SL_Symmetry_ope=  1.000000000000000    
_SL_agrad=  0.000000000000000    
_SL_GrdMax=  0.000000000000000    
_SL_GrdNorm=  0.000000000000000    
_SL_GrdRMS=  0.000000000000000    
!LATTICE= -1.000000000000000    
!NEWLATTICE=  0.000000000000000    
!LATGRAD_VAR=FALSE
!SEW_LATTICE=  1.000000000000000    
!LOCAL=  0.000000000000000    
!SAVEDOM= -1.000000000000000    
!RESTDOM= -1.000000000000000    
!SAVEDOM_HF= -1.000000000000000    
!RESTDOM_HF= -1.000000000000000    
!HESSREC=  0.000000000000000    
!FREQREC=  0.000000000000000    
!NMODREC=  0.000000000000000    
!GTASKS=  0.000000000000000    
!HTASKS=  0.000000000000000    
!THRCHG= 0.1000000000000000    
!DEBUG= -1.000000000000000    
!CFIT_CPHF=  0.000000000000000    
!RDOMAUX_CPHF=  3.000000000000000    
!THRAO_CPHF= 0.1000000000000000E-09
!THRMO_CPHF= 0.1000000000000000E-08
!THROV_CPHF= 0.1000000000000000E-11
!THRSW_CPHF= 0.1000000000000000E-09
!THRPROD_CPHF= 0.1000000000000000E-08
!THRAOPR_CPHF= 0.1000000000000000E-11
!CFIT_SCFGRD=  0.000000000000000    
!RDOMAUX_SCFGRD=  5.000000000000000    
!THRAO_SCFGRD= 0.1000000000000000E-09
!THRMO_SCFGRD= 0.1000000000000000E-08
!THROV_SCFGRD= 0.1000000000000000E-11
!THRSW_SCFGRD= 0.1000000000000000E-09
!THRPROD_SCFGRD= 0.1000000000000000E-08
!THRAOPR_SCFGRD= 0.1000000000000000E-11
!LOCFIT_SCF=  0.000000000000000    
!LOCFIT_MP2= -1.000000000000000    
_RIDOM=  0.000000000000000    
!CC2_METHOD=  0.000000000000000    
_BASIS2006=FALSE
_SVDDEL= -1.000000000000000    
_SVDDELA= -1.000000000000000    
_SVDDELP= -1.000000000000000    
_SVDDELF= -1.000000000000000    
_SVDDELS= -1.000000000000000    
_SVDDEL_ABS= -1.000000000000000    
_SVDDELA_ABS= -1.000000000000000    
_SVDDELP_ABS= -1.000000000000000    
_SVDDELF_ABS= -1.000000000000000    
_SVDDELS_ABS= -1.000000000000000    
_MAXBASIS=  0.000000000000000    
!OPT_CONICAL=  0.000000000000000    
!CLEARSP_JGRID=  0.000000000000000    
_4EXT_NDISKS=  1.000000000000000    
!ZMP=  0.000000000000000    
_MAXIT_ZMP=  500.0000000000000    
_MAXDIS_ZMP=  100.0000000000000    
_ACCU_ZMP=  14.00000000000000    
_SHIFTA_ZMP= -100.0000000000000    
!EMBEDFLAG=  1.000000000000000    
!EMBED=FALSE
!EMBED_F12=FALSE
!EMBEDNUC=  0.000000000000000    
_EMBEDENERGY=  0.000000000000000    
_KSPACETIME=  0.000000000000000    
_RSPACETIME=  0.000000000000000    
!EMBED_DFC=FALSE
!NUM_VOIDS=  0.000000000000000    
_IBODY=  0.000000000000000    
_EMBE_TOTAL=  0.000000000000000    
_EMBE_HF=  0.000000000000000    
_EMBE_CORR=  0.000000000000000    
!EDFT=  0.000000000000000    
_IFASTLATGRAD=  0.000000000000000    
_SINDEX=  0.000000000000000    
GX1=  0.000000000000000    
GY1=  1.315816206000000    
GZ1=-0.1043128750000000    
GX2=  1.477198805000000    
GY2=  1.699052636000000    
GZ2= 0.8345029970000000    
GX3=  0.000000000000000    
GY3= -1.315816206000000    
GZ3=-0.1043128750000000    
GX4= -1.477198805000000    
GY4= -1.699052636000000    
GZ4= 0.8345029970000000    
[Atoms] Angs
O     1    8         0.0000000000        0.6962999474       -0.0551999961
H     2    1         0.7816999408        0.8990999319        0.4415999669
O     3    8         0.0000000000       -0.6962999474       -0.0551999961
H     4    1        -0.7816999408       -0.8990999319        0.4415999669
[GTO]
  1 0
 s    8  1.00
  0.1172000000D+05  0.7096459465D-03
  0.1759000000D+04  0.5467272292D-02
  0.4008000000D+03  0.2782311861D-01
  0.1137000000D+03  0.1047477397D+00
  0.3703000000D+02  0.2829208464D+00
  0.1327000000D+02  0.4484952387D+00
  0.5025000000D+01  0.2708168852D+00
  0.1013000000D+01  0.1545029161D-01
 s    8  1.00
  0.1172000000D+05 -0.3144434117D-03
  0.1759000000D+04 -0.2482137681D-02
  0.4008000000D+03 -0.1231635538D-01
  0.1137000000D+03 -0.5053891734D-01
  0.3703000000D+02 -0.1393849033D+00
  0.1327000000D+02 -0.3250774948D+00
  0.5025000000D+01 -0.2298483076D+00
  0.1013000000D+01  0.1095379347D+01
 s    1  1.00
  0.3023000000D+00  0.1000000000D+01
 p    3  1.00
  0.1770000000D+02  0.6267916628D-01
  0.3854000000D+01  0.3335365659D+00
  0.1046000000D+01  0.7412396416D+00
 p    1  1.00
  0.2753000000D+00  0.1000000000D+01
 d    1  1.00
  0.1185000000D+01  0.1000000000D+01
  
  3 0
 s    8  1.00
  0.1172000000D+05  0.7096459465D-03
  0.1759000000D+04  0.5467272292D-02
  0.4008000000D+03  0.2782311861D-01
  0.1137000000D+03  0.1047477397D+00
  0.3703000000D+02  0.2829208464D+00
  0.1327000000D+02  0.4484952387D+00
  0.5025000000D+01  0.2708168852D+00
  0.1013000000D+01  0.1545029161D-01
 s    8  1.00
  0.1172000000D+05 -0.3144434117D-03
  0.1759000000D+04 -0.2482137681D-02
  0.4008000000D+03 -0.1231635538D-01
  0.1137000000D+03 -0.5053891734D-01
  0.3703000000D+02 -0.1393849033D+00
  0.1327000000D+02 -0.3250774948D+00
  0.5025000000D+01 -0.2298483076D+00
  0.1013000000D+01  0.1095379347D+01
 s    1  1.00
  0.3023000000D+00  0.1000000000D+01
 p    3  1.00
  0.1770000000D+02  0.6267916628D-01
  0.3854000000D+01  0.3335365659D+00
  0.1046000000D+01  0.7412396416D+00
 p    1  1.00
  0.2753000000D+00  0.1000000000D+01
 d    1  1.00
  0.1185000000D+01  0.1000000000D+01
  
  2 0
 s    3  1.00
  0.1301000000D+02  0.3349872639D-01
  0.1962000000D+01  0.2348008012D+00
  0.4446000000D+00  0.8136829579D+00
 s    1  1.00
  0.1220000000D+00  0.1000000000D+01
 p    1  1.00
  0.7270000000D+00  0.1000000000D+01
  
  4 0
 s    3  1.00
  0.1301000000D+02  0.3349872639D-01
  0.1962000000D+01  0.2348008012D+00
  0.4446000000D+00  0.8136829579D+00
 s    1  1.00
  0.1220000000D+00  0.1000000000D+01
 p    1  1.00
  0.7270000000D+00  0.1000000000D+01
 
 
[MO]
 Sym=      1.1
 Ene=     -20.6167
 Spin= Alpha
 Occup=    2.000000
1 0.70777801065381
2 0.000849780827916
3 -0.002157594968825
4 0.000827267281448
5 -0.000855214891798
6 0.000594423176361
7 -0.000414584422072
8 0.000378703647794
9 -0.000262962577708
10 0.000177623827201
11 -0.000337856537481
12 0.000160232710280
13 0.000054080322502
14 0.000024719441430
15 0.000011826348378
16 0.70777801065381
17 0.000849780827916
18 -0.002157594968825
19 -0.000827267281448
20 0.000855214891798
21 0.000594423176361
22 0.000414584422072
23 -0.000378703647794
24 -0.000262962577708
25 0.000177623827201
26 -0.000337856537481
27 0.000160232710280
28 0.000054080322502
29 -0.000024719441430
30 -0.000011826348378
31 -0.000058758771804
32 0.000574893366136
33 0.000381637002715
34 -0.000039648627148
35 0.000247646360241
36 -0.000058758771804
37 0.000574893366136
38 -0.000381637002715
39 0.000039648627148
40 0.000247646360241
 Sym=      1.2
 Ene=     -20.6163
 Spin= Alpha
 Occup=    2.000000
1 0.70786233907201
2 0.000938815913482
3 -0.003586549254929
4 0.000825983014369
5 -0.000600396694475
6 0.000592629257675
7 -0.000223041192539
8 0.001499700729199
9 -0.000241281789886
10 0.000152050936039
11 -0.000269419204284
12 0.000117368268245
13 0.000012089840518
14 0.000036881515050
15 0.000031044825359
16 -0.70786233907201
17 -0.000938815913482
18 0.003586549254929
19 0.000825983014369
20 -0.000600396694475
21 -0.000592629257675
22 -0.000223041192539
23 0.001499700729199
24 0.000241281789886
25 -0.000152050936039
26 0.000269419204284
27 -0.000117368268245
28 -0.000012089840518
29 0.000036881515050
30 0.000031044825359
31 0.000034250324777
32 0.000073766611598
33 0.000467359534377
34 0.000076370444186
35 0.000306305176894
36 -0.000034250324777
37 -0.000073766611598
38 0.000467359534377
39 0.000076370444186
40 -0.000306305176894
 Sym=      2.1
 Ene=      -1.4984
 Spin= Alpha
 Occup=    2.000000
1 -0.006674939812896
2 0.31555333931632
3 0.28520042203060
4 0.028039237095256
5 -0.086380490340380
6 0.024290875752739
7 -0.006543116828608
8 -0.035619468908835
9 0.003885898875390
10 -0.006912218233469
11 0.015941604406495
12 -0.009029386173026
13 0.000131428398196
14 0.002407429009628
15 -0.002138412782637
16 -0.006674939812896
17 0.31555333931632
18 0.28520042203060
19 -0.028039237095256
20 0.086380490340380
21 0.024290875752739
22 0.006543116828608
23 0.035619468908835
24 0.003885898875390
25 -0.006912218233469
26 0.015941604406495
27 -0.009029386173026
28 0.000131428398196
29 -0.002407429009628
30 0.002138412782637
31 0.11260496120804
32 -0.003957499869200
33 -0.020494583254480
34 -0.005725103330529
35 -0.013287992184629
36 0.11260496120804
37 -0.003957499869200
38 0.020494583254480
39 0.005725103330529
40 -0.013287992184629
 Sym=      2.2
 Ene=      -1.2037
 Spin= Alpha
 Occup=    2.000000
1 -0.001596159909523
2 0.32474235969046
3 0.33055225354913
4 0.072045216106496
5 0.082649964851508
6 0.037909818480368
7 0.006204352495708
8 0.031147170207455
9 -0.000107515308899
10 0.006994368731362
11 -0.010209010466344
12 0.003214641734981
13 0.000340350168786
14 0.004286171950986
15 0.002272814267070
16 0.001596159909523
17 -0.32474235969046
18 -0.33055225354913
19 0.072045216106496
20 0.082649964851508
21 -0.037909818480368
22 0.006204352495708
23 0.031147170207455
24 0.000107515308899
25 -0.006994368731362
26 0.010209010466344
27 -0.003214641734981
28 -0.000340350168786
29 0.004286171950986
30 0.002272814267070
31 0.18701075677052
32 0.008083517403208
33 -0.029563617256277
34 -0.006279547008501
35 -0.018759469495987
36 -0.18701075677052
37 -0.008083517403208
38 -0.029563617256277
39 -0.006279547008501
40 0.018759469495987
 Sym=      3.1
 Ene=      -0.7245
 Spin= Alpha
 Occup=    2.000000
1 0.001366399734637
2 -0.021957264430676
3 -0.084896999025099
4 0.14853781847688
5 0.23160750461240
6 0.28097660428585
7 0.053323827220957
8 0.12233672252518
9 0.15370228664167
10 0.012896279821921
11 -0.025143912906025
12 0.012247633084105
13 0.006524624792228
14 0.010386778111915
15 -0.006251260437176
16 0.001366399734637
17 -0.021957264430676
18 -0.084896999025099
19 -0.14853781847688
20 -0.23160750461240
21 0.28097660428585
22 -0.053323827220957
23 -0.12233672252518
24 0.15370228664167
25 0.012896279821921
26 -0.025143912906025
27 0.012247633084105
28 0.006524624792228
29 -0.010386778111915
30 0.006251260437176
31 0.25726627978521
32 0.049239011199789
33 -0.031173857011502
34 -0.002914929958638
35 -0.011268147199987
36 0.25726627978521
37 0.049239011199789
38 0.031173857011502
39 0.002914929958638
40 -0.011268147199987
 Sym=      3.2
 Ene=      -0.7121
 Spin= Alpha
 Occup=    2.000000
1 0.000204736372422
2 -0.11409570101447
3 -0.22460076262518
4 0.37221952416487
5 -0.044765551216642
6 0.056622722004642
7 0.21567759284007
8 -0.040877202053260
9 0.013442358288368
10 0.007961135972882
11 -0.003971040356836
12 -0.003990095616045
13 -0.014944408720672
14 0.009649024265382
15 0.000983428605912
16 -0.000204736372422
17 0.11409570101447
18 0.22460076262518
19 0.37221952416487
20 -0.044765551216642
21 -0.056622722004642
22 0.21567759284007
23 -0.040877202053260
24 -0.013442358288368
25 -0.007961135972882
26 0.003971040356836
27 0.003990095616045
28 0.014944408720672
29 0.009649024265382
30 0.000983428605912
31 0.20287375851738
32 0.035832361058886
33 -0.016083295234792
34 -0.013799880675048
35 -0.016226085025575
36 -0.20287375851738
37 -0.035832361058886
38 -0.016083295234792
39 -0.013799880675048
40 0.016226085025575
 Sym=      4.1
 Ene=      -0.6158
 Spin= Alpha
 Occup=    2.000000
1 -0.003189086848515
2 -0.071236724775722
3 -0.10740949519360
4 -0.070960127432067
5 -0.31767614992684
6 0.29179524247239
7 -0.038788512024156
8 -0.20352645102207
9 0.21484289139077
10 -0.014804694728497
11 0.020041331642306
12 -0.005236636913809
13 -0.005841760557009
14 0.004319726845929
15 -0.016283446341006
16 -0.003189086848515
17 -0.071236724775722
18 -0.10740949519360
19 0.070960127432067
20 0.31767614992684
21 0.29179524247239
22 0.038788512024156
23 0.20352645102207
24 0.21484289139077
25 -0.014804694728497
26 0.020041331642306
27 -0.005236636913809
28 -0.005841760557009
29 -0.004319726845929
30 0.016283446341006
31 -0.038218939054153
32 -0.030202942925859
33 0.001496889796946
34 -0.009877557305368
35 0.015824823002405
36 -0.038218939054153
37 -0.030202942925859
38 -0.001496889796946
39 0.009877557305368
40 0.015824823002405
 Sym=      5.1
 Ene=      -0.5042
 Spin= Alpha
 Occup=    2.000000
1 0.000734299354138
2 -0.070510943099969
3 -0.17283616611694
4 0.39583364089450
5 -0.18535579579196
6 -0.12587949977483
7 0.28163465233808
8 -0.13319530734006
9 -0.10358298487040
10 0.006354347660416
11 0.005851028852337
12 -0.012205376512753
13 0.000879694793593
14 0.006218796043301
15 0.003031159296919
16 0.000734299354138
17 -0.070510943099969
18 -0.17283616611694
19 -0.39583364089450
20 0.18535579579196
21 -0.12587949977483
22 -0.28163465233808
23 0.13319530734006
24 -0.10358298487040
25 0.006354347660416
26 0.005851028852337
27 -0.012205376512753
28 0.000879694793593
29 -0.006218796043301
30 -0.003031159296919
31 0.15965386732938
32 0.002938911683872
33 -0.000794725189583
34 -0.007913640005583
35 -0.019446595570088
36 0.15965386732938
37 0.002938911683872
38 0.000794725189583
39 0.007913640005583
40 -0.019446595570088
 Sym=      4.2
 Ene=      -0.4665
 Spin= Alpha
 Occup=    2.000000
1 -0.000760822501921
2 -0.044584335096760
3 -0.096277971503881
4 -0.11673832649883
5 -0.017185030240096
6 0.46170173329536
7 -0.10878614967425
8 -0.024159394276731
9 0.34781303135471
10 -0.005199086480640
11 -0.002576160736688
12 0.007775247217328
13 0.005437166204893
14 0.008999856867536
15 0.003745733057419
16 0.000760822501921
17 0.044584335096760
18 0.096277971503881
19 -0.11673832649883
20 -0.017185030240096
21 -0.46170173329536
22 -0.10878614967425
23 -0.024159394276731
24 -0.34781303135471
25 0.005199086480640
26 0.002576160736688
27 -0.007775247217328
28 -0.005437166204893
29 0.008999856867536
30 0.003745733057419
31 0.11751510961445
32 0.029536379569907
33 -0.021290363179940
34 -0.001474615430792
35 0.014055307643526
36 -0.11751510961445
37 -0.029536379569907
38 -0.021290363179940
39 -0.001474615430792
40 -0.014055307643526
 Sym=      6.1
 Ene=       0.1919
 Spin= Alpha
 Occup=    0.000000
1 0.029400928976583
2 -0.051865949737603
3 -0.64207762830582
4 -0.11504799120170
5 -0.065222696562949
6 -0.083211435223209
7 -0.21842726388991
8 -0.095379280294963
9 -0.15574822284410
10 -0.003578219054373
11 0.002320088334494
12 0.001258130719879
13 -0.003237974140405
14 -0.008996663029772
15 0.000434056528254
16 0.029400928976583
17 -0.051865949737603
18 -0.64207762830582
19 0.11504799120170
20 0.065222696562949
21 -0.083211435223209
22 0.21842726388991
23 0.095379280294963
24 -0.15574822284410
25 -0.003578219054373
26 0.002320088334494
27 0.001258130719879
28 -0.003237974140405
29 0.008996663029772
30 -0.000434056528254
31 0.048350765783608
32 0.94331210298933
33 -0.013915040968857
34 -0.005806672854469
35 -0.008155484175082
36 0.048350765783608
37 0.94331210298933
38 0.013915040968857
39 0.005806672854469
40 -0.008155484175082
 Sym=      5.2
 Ene=       0.2007
 Spin= Alpha
 Occup=    0.000000
1 0.020757803730868
2 -0.084650913745643
3 -0.59799305854176
4 -0.12563155388704
5 0.13277928988293
6 -0.080070243483322
7 -0.27206069723614
8 0.084298938800655
9 -0.14834326388536
10 -0.010181159726375
11 0.013011640621927
12 -0.002830480895552
13 0.004666381797581
14 -0.007215160487360
15 0.000370751507897
16 -0.020757803730868
17 0.084650913745643
18 0.59799305854176
19 -0.12563155388704
20 0.13277928988293
21 0.080070243483322
22 -0.27206069723614
23 0.084298938800655
24 0.14834326388536
25 0.010181159726375
26 -0.013011640621927
27 0.002830480895552
28 -0.004666381797581
29 -0.007215160487360
30 0.000370751507897
31 0.060265671901076
32 1.05448722461271
33 -0.021781937278945
34 0.013837990665498
35 -0.015699396532302
36 -0.060265671901076
37 -1.05448722461271
38 -0.021781937278945
39 0.013837990665498
40 0.015699396532302
 Sym=      6.2
 Ene=       0.3477
 Spin= Alpha
 Occup=    0.000000
1 -0.001328306413467
2 -0.12200845221240
3 -0.39368306923215
4 0.083462264162500
5 0.44287922297490
6 0.043548123588267
7 0.14183077498006
8 0.84879282746302
9 0.088276465518890
10 -0.006757880572571
11 0.013976223639624
12 -0.007218343067052
13 0.005424951110847
14 -0.000391410235394
15 0.006590689084848
16 0.001328306413467
17 0.12200845221240
18 0.39368306923215
19 0.083462264162500
20 0.44287922297490
21 -0.043548123588267
22 0.14183077498006
23 0.84879282746302
24 -0.088276465518890
25 0.006757880572571
26 -0.013976223639624
27 0.007218343067052
28 -0.005424951110847
29 -0.000391410235394
30 0.006590689084848
31 -0.043077563692101
32 -0.51544328245746
33 -0.002739303302781
34 0.022477620148457
35 -0.003245068240132
36 0.043077563692101
37 0.51544328245746
38 -0.002739303302781
39 0.022477620148457
40 0.003245068240132
 Sym=      7.2
 Ene=       0.8341
 Spin= Alpha
 Occup=    0.000000
1 -0.046890938517549
2 -0.18432452835547
3 0.14072927970133
4 -0.13914057824837
5 0.071223210735634
6 -0.18516092370224
7 -0.092594887054494
8 -0.073447161931049
9 -0.077586818878110
10 0.034332461344789
11 -0.015498830035339
12 -0.018833631309450
13 0.046430956978626
14 0.067398503589349
15 0.009102222917149
16 0.046890938517549
17 0.18432452835547
18 -0.14072927970133
19 -0.13914057824837
20 0.071223210735634
21 0.18516092370224
22 -0.092594887054494
23 -0.073447161931049
24 0.077586818878110
25 -0.034332461344789
26 0.015498830035339
27 0.018833631309450
28 -0.046430956978626
29 0.067398503589349
30 0.009102222917149
31 0.88988527702794
32 -0.72443929585715
33 0.18044961150113
34 0.070367978721014
35 0.11464778709387
36 -0.88988527702794
37 0.72443929585715
38 0.18044961150113
39 0.070367978721014
40 -0.11464778709387
 Sym=      7.1
 Ene=       0.8409
 Spin= Alpha
 Occup=    0.000000
1 -0.024836550546068
2 -0.095532546997030
3 0.15204914421826
4 -0.30219389442336
5 0.025647040793533
6 -0.11743700210739
7 -0.077000252921618
8 -0.11293709920171
9 -0.034261406380619
10 0.050298720588121
11 -0.044916339630965
12 -0.005382380957157
13 0.014626365109677
14 0.062674761772066
15 0.029214753560422
16 -0.024836550546068
17 -0.095532546997030
18 0.15204914421826
19 0.30219389442336
20 -0.025647040793533
21 -0.11743700210739
22 0.077000252921618
23 0.11293709920171
24 -0.034261406380619
25 0.050298720588121
26 -0.044916339630965
27 -0.005382380957157
28 0.014626365109677
29 -0.062674761772066
30 -0.029214753560422
31 0.82259537958452
32 -0.58783862239622
33 0.20327934025145
34 0.055220233520954
35 0.12985382341923
36 0.82259537958452
37 -0.58783862239622
38 -0.20327934025145
39 -0.055220233520954
40 0.12985382341923
 Sym=      8.2
 Ene=       1.1196
 Spin= Alpha
 Occup=    0.000000
1 0.007464063624720
2 -0.071801556697164
3 -0.74411556333564
4 0.43423201290986
5 -0.45362428223734
6 -0.013419202619024
7 -0.59977513248539
8 0.86893379168051
9 -0.18346787110223
10 0.014341787242448
11 -0.029919090762921
12 0.015577303520473
13 -0.003429652077136
14 0.002760466343455
15 -0.004774113833812
16 -0.007464063624720
17 0.071801556697164
18 0.74411556333564
19 0.43423201290986
20 -0.45362428223734
21 0.013419202619024
22 -0.59977513248539
23 0.86893379168051
24 0.18346787110223
25 -0.014341787242448
26 0.029919090762921
27 -0.015577303520473
28 0.003429652077136
29 0.002760466343455
30 -0.004774113833812
31 0.35373316442508
32 0.017915224824893
33 -0.11575321128382
34 -0.037021940901880
35 -0.058090219017085
36 -0.35373316442508
37 -0.017915224824893
38 -0.11575321128382
39 -0.037021940901880
40 0.058090219017085
 Sym=      8.1
 Ene=       1.1423
 Spin= Alpha
 Occup=    0.000000
1 0.033421958497696
2 0.12663029055853
3 0.39751047974873
4 -0.22090394906631
5 -0.24437703766595
6 -0.33571036825384
7 0.85291288718673
8 0.33550691563010
9 0.53560165092246
10 -0.034843387305748
11 0.058330584636227
12 -0.023487197330479
13 0.016629728953653
14 0.008295201588376
15 0.010303867465242
16 0.033421958497696
17 0.12663029055853
18 0.39751047974873
19 0.22090394906631
20 0.24437703766595
21 -0.33571036825384
22 -0.85291288718673
23 -0.33550691563010
24 0.53560165092246
25 -0.034843387305748
26 0.058330584636227
27 -0.023487197330479
28 0.016629728953653
29 -0.008295201588376
30 -0.010303867465242
31 -0.57360875707392
32 -0.10663389059655
33 0.13401722268917
34 0.21367441032293
35 0.14336932210002
36 -0.57360875707392
37 -0.10663389059655
38 -0.13401722268917
39 -0.21367441032293
40 0.14336932210002
 Sym=      9.1
 Ene=       1.1530
 Spin= Alpha
 Occup=    0.000000
1 0.010886613486531
2 0.033412857345191
3 -0.083214637266807
4 0.27550256433912
5 0.21274235222717
6 -0.54898832108686
7 -0.44666362638674
8 -0.17296518926467
9 0.46795696874342
10 0.019989699896043
11 -0.032420796174274
12 0.012431096278231
13 -0.008268581856664
14 -0.004067417875141
15 -0.004867966115381
16 0.010886613486531
17 0.033412857345191
18 -0.083214637266807
19 -0.27550256433912
20 -0.21274235222717
21 -0.54898832108686
22 0.44666362638674
23 0.17296518926467
24 0.46795696874342
25 0.019989699896043
26 -0.032420796174274
27 0.012431096278231
28 -0.008268581856664
29 0.004067417875141
30 0.004867966115381
31 0.076761856907127
32 -0.051153538403135
33 0.013416874338175
34 -0.17493398938562
35 0.006821923037602
36 0.076761856907127
37 -0.051153538403135
38 -0.013416874338175
39 0.17493398938562
40 0.006821923037602
 Sym=      9.2
 Ene=       1.2169
 Spin= Alpha
 Occup=    0.000000
1 -0.005266788489542
2 0.045250088882563
3 0.42453635758888
4 0.30189554818965
5 0.21807689687283
6 -0.48157333730479
7 -0.22448235543268
8 -0.77301065017582
9 0.75116422858661
10 -0.013331744240403
11 0.020069849603295
12 -0.006738105362891
13 0.013893334060739
14 -0.020086721722420
15 0.016463171504324
16 0.005266788489542
17 -0.045250088882563
18 -0.42453635758888
19 0.30189554818965
20 0.21807689687283
21 0.48157333730479
22 -0.22448235543268
23 -0.77301065017582
24 -0.75116422858661
25 0.013331744240403
26 -0.020069849603295
27 0.006738105362891
28 -0.013893334060739
29 -0.020086721722420
30 0.016463171504324
31 -0.22297395566632
32 0.31200914882030
33 -0.052683631778953
34 0.22799380823178
35 -0.026141083549841
36 0.22297395566632
37 -0.31200914882030
38 -0.052683631778953
39 0.22799380823178
40 0.026141083549841
 Sym=     10.2
 Ene=       1.2806
 Spin= Alpha
 Occup=    0.000000
1 -0.024105086861109
2 -0.052389436732649
3 0.076588059617552
4 -0.24802516009643
5 -0.40055627796218
6 -0.31226096452337
7 0.65028014186040
8 1.05325445875478
9 0.78860016124081
10 0.019446238751266
11 -0.033078025159987
12 0.013631786408720
13 -0.017200107340537
14 -0.004806358939745
15 0.018675119817682
16 0.024105086861109
17 0.052389436732649
18 -0.076588059617552
19 -0.24802516009643
20 -0.40055627796218
21 0.31226096452337
22 0.65028014186040
23 1.05325445875478
24 -0.78860016124081
25 -0.019446238751266
26 0.033078025159987
27 -0.013631786408720
28 0.017200107340537
29 -0.004806358939745
30 0.018675119817682
31 -0.43685600816101
32 -0.58591729197767
33 0.23111997578202
34 -0.007825039508210
35 0.14468150738397
36 0.43685600816101
37 0.58591729197767
38 0.23111997578202
39 -0.007825039508210
40 -0.14468150738397
 Sym=     10.1
 Ene=       1.3310
 Spin= Alpha
 Occup=    0.000000
1 -0.10409997304306
2 -0.28680181783194
3 0.38027267159080
4 0.32813970333473
5 -0.51890077700860
6 -0.039296292634089
7 -0.67391350152373
8 0.53911779987324
9 -0.044166019270874
10 -0.023205396109046
11 0.064992668276498
12 -0.041787272167453
13 -0.012573160939843
14 0.031017967069215
15 0.019983535831939
16 -0.10409997304306
17 -0.28680181783194
18 0.38027267159080
19 -0.32813970333473
20 0.51890077700860
21 -0.039296292634089
22 0.67391350152373
23 -0.53911779987324
24 -0.044166019270874
25 -0.023205396109046
26 0.064992668276498
27 -0.041787272167453
28 -0.012573160939843
29 -0.031017967069215
30 -0.019983535831939
31 0.36627700480198
32 -0.22241145425464
33 -0.025441062328072
34 0.033315189976943
35 0.047506177587923
36 0.36627700480198
37 -0.22241145425464
38 0.025441062328072
39 -0.033315189976943
40 0.047506177587923
 Sym=     11.2
 Ene=       1.4728
 Spin= Alpha
 Occup=    0.000000
1 0.010236650709979
2 -0.000410629715098
3 -0.21804752310282
4 0.077950835007317
5 0.12113763702095
6 -0.13269816578987
7 -0.10220910081823
8 0.19479138942693
9 -0.097990433577237
10 -0.042146417233458
11 0.001283224790278
12 0.040863192443180
13 -0.096069301181051
14 0.054661448759419
15 -0.004008924569533
16 -0.010236650709979
17 0.000410629715098
18 0.21804752310282
19 0.077950835007317
20 0.12113763702095