[Molden Format]
[Molpro variables]
_NUMVAR=  808.0000000000000    
_AVOGAD= 0.6022136736000000E+24
_BOLTZ= 0.1380658000000000E-22
_CLIGHT=  29979245800.00000    
_EV2006= 0.3674930886769165E-01
_EV= 0.3674932534394180E-01
_ENULL= 0.8854187817000000E-11
_KJOULE= 0.3808798324128737E-03
_KJOULE/MOL= 0.3808798324128737E-03
_CM= 0.4556335267302901E-05
_CM-1= 0.4556335267302901E-05
_DEB2SI= 0.3335641000000000E-29
_AMU2AU=  1822.888390000000    
_KCAL= 0.1593601117815568E-02
_KCAL/MOL= 0.1593601117815568E-02
_KELVIN2006= 0.3166828861084835E-05
_KELVIN= 0.3166814820820034E-05
_JOULE= 0.4359748200000000E-17
_HERTZ2006= 0.1519829850815779E-15
_HERTZ= 0.1519829846011223E-15
_HZ2006= 0.1519829850815779E-15
_HZ= 0.1519829846011223E-15
_JPCAL=  4.184000000000000    
_PLANCK= 0.6626075540000000E-33
_TOA2006= 0.5291772490000000    
_TOA= 0.5291772090000000    
_TOANG2006= 0.5291772490000000    
_TOANG= 0.5291772090000000    
_TORAD= 0.1745329251994330E-01
_TOCM=  219474.6306700000    
_TODEBYE=  2.541580000000000    
_TOEV2006=  27.21139610000000    
_TOE= 0.4803242000000000E-09
_TOEV=  27.21138390000000    
_TOHERTZ2006=  6579683899900000.    
_TOHERTZ=  6579683920700000.    
_TOHZ2006=  6579683899900000.    
_TOHZ=  6579683920700000.    
_TOK2006=  315773.3000000000    
_TOK=  315774.7000000000    
_TOKCAL=  627.5096000000000    
_TOKELVIN2006=  315773.3000000000    
_TOKELVIN=  315774.7000000000    
_TOKJ=  2625.500000000000    
_TOKJOULE=  2625.500000000000    
_TOKG= 0.1660565586000000E-26
_ANG2006=  1.889725988578923    
_ANG=  1.889726131421507    
_ANGSTROM2006=  1.889725988578923    
_ANGSTROM=  1.889726131421507    
_RPAREF=  0.000000000000000    
_RPADISS=  0.000000000000000    
_IGNORE_UNDEF=  2.000000000000000    
_STRICTCHECK=  0.000000000000000    
_SEW_ONEEL=  0.000000000000000    
_CPPDONE=FALSE
_DKROLL_DONE=  0.000000000000000    
_FOCKDONE=TRUE
_GRADONE=FALSE
_HESSDONE=FALSE
_INTDONE=TRUE
_SCFDONE=TRUE
_MODUL_BLOCK=FALSE
_MODUL_CUDA=FALSE
_MODUL_SLATER=FALSE
_MODUL_MRCC=FALSE
_MODUL_NBO6=FALSE
_MODUL_NECI=TRUE
_MODUL_AIMS=TRUE
_MRCC_EXEC=
_FITC_AO_SAVED=FALSE
_FITC_MO_SAVED=FALSE
_SHARED_FS=TRUE
_LSTYP=SEWARD
_INTYP=INTS
_GEOMTYP=ZMAT
_GRADTYP=ALASKA
_DIRECT=FALSE
_DKHO= -1.000000000000000    
_SYNCM=  0.000000000000000    
_BASIS=USERDEF
_ZORIENT=  1.000000000000000    
_NELEC=  42.00000000000000    
!SPIN=  0.000000000000000    
_QSDSTEP=  0.000000000000000    
_QSDIRC=  0.000000000000000    
_PROGRAM=HF-SCF
_CPUSTEP= 0.1899999999999999    
_SYSSTEP= 0.1000000000000001E-01
_WALLSTEP= 0.5100000000000000    
!DFSCF=  0.000000000000000    
!SCSGRD=  0.000000000000000    
_BASINP=  610.0000000000000    
_CPUTOT=  2.240000000000000    
_CPUSORT= 0.3500000000000001    
_SYSSORT= 0.1900000000000000    
_WALLSORT= 0.5799999982118607    
_DFTEXFAC=  1.000000000000000    
_DMX=  0.000000000000000    
_DMY=  0.000000000000000    
_DMZ=  0.000000000000000    
_DMX_SCF=  0.000000000000000    
_DMY_SCF=  0.000000000000000    
_DMZ_SCF=  0.000000000000000    
_EHOMO=-0.3326993314567835    
_ELUMO= 0.1358173769096926    
_ENERGY= -230.7214163471363    
_ENUC=  202.7384749397557    
_EPS1= -11.24123780415051    
_EPS2= -11.24070059301943    
_EPS3=-0.4968401752942291    
_EPS4=-0.3327022478758483    
_EPS5= -11.24069718784227    
_EPS6= -11.23953363746737    
_EPS7=-0.3326993314567835    
_EPS8= 0.1358173769096926    
_GRADEXFAC=  9999.000000000000    
_GRADMETHOD=  1.000000000000000    
_NMRMETHOD=  0.000000000000000    
!GRID_FREEZE= -1.000000000000000    
_ITERATIONS=  8.000000000000000    
_LASTNELEC=  42.00000000000000    
_LASTSPIN=  0.000000000000000    
_LASTSYM=  1.000000000000000    
_MPP_PROG=  0.000000000000000    
_NPROC_MPP=  1.000000000000000    
_NPROC_MPPX=  1.000000000000000    
_NPROC_SMP=  16.00000000000000    
_NUMSTEP=  0.000000000000000    
_ORBITAL=  2100.200000000000    
_PI=  3.141592653589793    
_SEIG_MIN= 0.3750168419057679E-03
_SEWPROP=TRUE
_STATUS=  1.000000000000000    
_SYSTOT= 0.2500000000000000    
_VERSION=  2012001.000000000    
_WALLTOT=  4.190000000000000    
_DATE=24-Jan-19
_LASTORB=RHF
_MACHINE=Linux-4.9.0-8-amd64/nympha18.meta.zcu.cz(x86_64) (16 PROC) 64 bit serial version
_OUTPUT=/auto/brno2/home/masiz4am/git/UKRmol-in/tests/suite/D2h_target_HF2/molpro.xml
_PGROUP=D2h
_TIME=16:17:55
_LIBMOL=/afs/ics.muni.cz/software/molpro-2012.1/molprop_2012_1_Linux_x86_64_i8/lib/
!VIBCNT=  0.000000000000000    
!RGHFCNT=  0.000000000000000    
!SURFREC=  0.000000000000000    
!POLYREC=  0.000000000000000    
!DIPREC=  0.000000000000000    
!VSCFREC=  0.000000000000000    
!VCIREC=  0.000000000000000    
!PVCIREC=  0.000000000000000    
!VMP2REC=  0.000000000000000    
!VMCSCFREC=  0.000000000000000    
!VMRCIREC=  0.000000000000000    
!VIBINFO=  0.000000000000000    
!GAREC=  0.000000000000000    
!SCFORB=  21002.00000000000    
!NEWMOL= -1.000000000000000    
!NEWSYM= -1.000000000000000    
_SLFILES=slscratch
_NGSSTO=  9.000000000000000    
_SIN=SIN
_COS=COS
_TAN=TAN
_ACOS=ACOS
_ASIN=ASIN
_ATAN=ATAN
_COSH=COSH
_SINH=SINH
_TANH=TANH
_ABS=ABS
_MOD=MOD
_ERF=ERF
_REFC=REFC
_ERFC=ERFC
_HYPOT=HYPOT
_J0=J0
_J1=J1
_JN=JN
_GAMMA=GAMMA
_LGAMMA=LGAMMA
_Y0=Y0
_Y1=Y1
_YN=YN
_EXP=EXP
_LOG=LOG
_LOG10=LOG10
_SQRT=SQRT
_INT=INT
_NINT=NINT
_MAX=MAX
_MIN=MIN
_COSMO=  0.000000000000000    
_COSMOIT=  0.000000000000000    
_COSMOES=  0.000000000000000    
_COSMOEDS=  0.000000000000000    
_COSMOEC=  0.000000000000000    
_COSMOEDCORR=  0.000000000000000    
_FEPSI=  1.000000000000000    
_SL_IsMM=  0.000000000000000    
_SL_NSYM=  8.000000000000000    
_SL_System_BitSw=  0.000000000000000    
_SL_Unique_atoms=  0.000000000000000    
_SL_GRAD=  0.000000000000000    
_SL_MAXUPD_Hess=  5.000000000000000    
_SL_N_PRINT_COD=  5.000000000000000    
_SL_PRINT_CODES=  0.000000000000000    
_SL_BasType=  0.000000000000000    
_SL_Energy_Pred=  0.000000000000000    
_SL_New_Coords=  0.000000000000000    
_SL_Total_Nuclea=  0.000000000000000    
_SL_Highest_Mltp=  0.000000000000000    
_SL_Ref_Geom=  0.000000000000000    
_SL_Symmetry_ope=  1.000000000000000    
_SL_agrad=  0.000000000000000    
_SL_GrdMax=  0.000000000000000    
_SL_GrdNorm=  0.000000000000000    
_SL_GrdRMS=  0.000000000000000    
!LATTICE= -1.000000000000000    
!NEWLATTICE=  0.000000000000000    
!LATGRAD_VAR=FALSE
!SEW_LATTICE=  1.000000000000000    
!LOCAL=  0.000000000000000    
!SAVEDOM= -1.000000000000000    
!RESTDOM= -1.000000000000000    
!SAVEDOM_HF= -1.000000000000000    
!RESTDOM_HF= -1.000000000000000    
!HESSREC=  0.000000000000000    
!FREQREC=  0.000000000000000    
!NMODREC=  0.000000000000000    
!GTASKS=  0.000000000000000    
!HTASKS=  0.000000000000000    
!THRCHG= 0.1000000000000000    
!DEBUG= -1.000000000000000    
!CFIT_CPHF=  0.000000000000000    
!RDOMAUX_CPHF=  3.000000000000000    
!THRAO_CPHF= 0.1000000000000000E-09
!THRMO_CPHF= 0.1000000000000000E-08
!THROV_CPHF= 0.1000000000000000E-11
!THRSW_CPHF= 0.1000000000000000E-09
!THRPROD_CPHF= 0.1000000000000000E-08
!THRAOPR_CPHF= 0.1000000000000000E-11
!CFIT_SCFGRD=  0.000000000000000    
!RDOMAUX_SCFGRD=  5.000000000000000    
!THRAO_SCFGRD= 0.1000000000000000E-09
!THRMO_SCFGRD= 0.1000000000000000E-08
!THROV_SCFGRD= 0.1000000000000000E-11
!THRSW_SCFGRD= 0.1000000000000000E-09
!THRPROD_SCFGRD= 0.1000000000000000E-08
!THRAOPR_SCFGRD= 0.1000000000000000E-11
!LOCFIT_SCF=  0.000000000000000    
!LOCFIT_MP2= -1.000000000000000    
_RIDOM=  0.000000000000000    
!CC2_METHOD=  0.000000000000000    
_BASIS2006=FALSE
_SVDDEL= -1.000000000000000    
_SVDDELA= -1.000000000000000    
_SVDDELP= -1.000000000000000    
_SVDDELF= -1.000000000000000    
_SVDDELS= -1.000000000000000    
_SVDDEL_ABS= -1.000000000000000    
_SVDDELA_ABS= -1.000000000000000    
_SVDDELP_ABS= -1.000000000000000    
_SVDDELF_ABS= -1.000000000000000    
_SVDDELS_ABS= -1.000000000000000    
_MAXBASIS=  0.000000000000000    
!OPT_CONICAL=  0.000000000000000    
!CLEARSP_JGRID=  0.000000000000000    
_4EXT_NDISKS=  1.000000000000000    
!ZMP=  0.000000000000000    
_MAXIT_ZMP=  500.0000000000000    
_MAXDIS_ZMP=  100.0000000000000    
_ACCU_ZMP=  14.00000000000000    
_SHIFTA_ZMP= -100.0000000000000    
!EMBEDFLAG=  1.000000000000000    
!EMBED=FALSE
!EMBED_F12=FALSE
!EMBEDNUC=  0.000000000000000    
_EMBEDENERGY=  0.000000000000000    
_KSPACETIME=  0.000000000000000    
_RSPACETIME=  0.000000000000000    
!EMBED_DFC=FALSE
!NUM_VOIDS=  0.000000000000000    
_IBODY=  0.000000000000000    
_EMBE_TOTAL=  0.000000000000000    
_EMBE_HF=  0.000000000000000    
_EMBE_CORR=  0.000000000000000    
!EDFT=  0.000000000000000    
_IFASTLATGRAD=  0.000000000000000    
_SINDEX=  0.000000000000000    
GX1=  2.645994329000000    
GY1=  0.000000000000000    
GZ1=  0.000000000000000    
GX2=  1.322997165000000    
GY2=  0.000000000000000    
GZ2= -2.291481734000000    
GX3=  4.700693397000000    
GY3=  0.000000000000000    
GZ3=  0.000000000000000    
GX4=  2.350252212000000    
GY4=  0.000000000000000    
GZ4= -4.070847725000000    
GX5= -1.322997165000000    
GY5=  0.000000000000000    
GZ5= -2.291481734000000    
GX6= -2.645994329000000    
GY6=  0.000000000000000    
GZ6=  0.000000000000000    
GX7= -2.350252212000000    
GY7=  0.000000000000000    
GZ7= -4.070847725000000    
GX8= -4.700693397000000    
GY8=  0.000000000000000    
GZ8=  0.000000000000000    
GX9= -1.322997165000000    
GY9=  0.000000000000000    
GZ9=  2.291481734000000    
GX10=  1.322997165000000    
GY10=  0.000000000000000    
GZ10=  2.291481734000000    
GX11= -2.350252212000000    
GY11=  0.000000000000000    
GZ11=  4.070847725000000    
GX12=  2.350252212000000    
GY12=  0.000000000000000    
GZ12=  4.070847725000000    
[Atoms] Angs
C     1    6         1.4001998941        0.0000000000        0.0000000000
C     2    6         0.7000999473        0.0000000000       -1.2125999085
H     3    1         2.4874998122        0.0000000000        0.0000000000
H     4    1         1.2436999060        0.0000000000       -2.1541998374
C     5    6        -0.7000999473        0.0000000000       -1.2125999085
C     6    6        -1.4001998941        0.0000000000        0.0000000000
H     7    1        -1.2436999060        0.0000000000       -2.1541998374
H     8    1        -2.4874998122        0.0000000000        0.0000000000
C     9    6        -0.7000999473        0.0000000000        1.2125999085
C    10    6         0.7000999473        0.0000000000        1.2125999085
H    11    1        -1.2436999060        0.0000000000        2.1541998374
H    12    1         1.2436999060        0.0000000000        2.1541998374
[GTO]
  1 0
 s    8  1.00
  0.6665000000D+04  0.6915839628D-03
  0.1000000000D+04  0.5325796153D-02
  0.2280000000D+03  0.2706072104D-01
  0.6471000000D+02  0.1016568461D+00
  0.2106000000D+02  0.2745748236D+00
  0.7495000000D+01  0.4482943189D+00
  0.2797000000D+01  0.2849026107D+00
  0.5215000000D+00  0.1519485921D-01
 s    8  1.00
  0.6665000000D+04 -0.2932696527D-03
  0.1000000000D+04 -0.2318035474D-02
  0.2280000000D+03 -0.1149978604D-01
  0.6471000000D+02 -0.4682672701D-01
  0.2106000000D+02 -0.1284661688D+00
  0.7495000000D+01 -0.3012662725D+00
  0.2797000000D+01 -0.2556307023D+00
  0.5215000000D+00  0.1093793361D+01
 s    1  1.00
  0.1596000000D+00  0.1000000000D+01
 p    3  1.00
  0.9439000000D+01  0.5697925159D-01
  0.2002000000D+01  0.3132072115D+00
  0.5456000000D+00  0.7603767417D+00
 p    1  1.00
  0.1517000000D+00  0.1000000000D+01
 d    1  1.00
  0.5500000000D+00  0.1000000000D+01
  
  6 0
 s    8  1.00
  0.6665000000D+04  0.6915839628D-03
  0.1000000000D+04  0.5325796153D-02
  0.2280000000D+03  0.2706072104D-01
  0.6471000000D+02  0.1016568461D+00
  0.2106000000D+02  0.2745748236D+00
  0.7495000000D+01  0.4482943189D+00
  0.2797000000D+01  0.2849026107D+00
  0.5215000000D+00  0.1519485921D-01
 s    8  1.00
  0.6665000000D+04 -0.2932696527D-03
  0.1000000000D+04 -0.2318035474D-02
  0.2280000000D+03 -0.1149978604D-01
  0.6471000000D+02 -0.4682672701D-01
  0.2106000000D+02 -0.1284661688D+00
  0.7495000000D+01 -0.3012662725D+00
  0.2797000000D+01 -0.2556307023D+00
  0.5215000000D+00  0.1093793361D+01
 s    1  1.00
  0.1596000000D+00  0.1000000000D+01
 p    3  1.00
  0.9439000000D+01  0.5697925159D-01
  0.2002000000D+01  0.3132072115D+00
  0.5456000000D+00  0.7603767417D+00
 p    1  1.00
  0.1517000000D+00  0.1000000000D+01
 d    1  1.00
  0.5500000000D+00  0.1000000000D+01
  
  2 0
 s    8  1.00
  0.6665000000D+04  0.6915839628D-03
  0.1000000000D+04  0.5325796153D-02
  0.2280000000D+03  0.2706072104D-01
  0.6471000000D+02  0.1016568461D+00
  0.2106000000D+02  0.2745748236D+00
  0.7495000000D+01  0.4482943189D+00
  0.2797000000D+01  0.2849026107D+00
  0.5215000000D+00  0.1519485921D-01
 s    8  1.00
  0.6665000000D+04 -0.2932696527D-03
  0.1000000000D+04 -0.2318035474D-02
  0.2280000000D+03 -0.1149978604D-01
  0.6471000000D+02 -0.4682672701D-01
  0.2106000000D+02 -0.1284661688D+00
  0.7495000000D+01 -0.3012662725D+00
  0.2797000000D+01 -0.2556307023D+00
  0.5215000000D+00  0.1093793361D+01
 s    1  1.00
  0.1596000000D+00  0.1000000000D+01
 p    3  1.00
  0.9439000000D+01  0.5697925159D-01
  0.2002000000D+01  0.3132072115D+00
  0.5456000000D+00  0.7603767417D+00
 p    1  1.00
  0.1517000000D+00  0.1000000000D+01
 d    1  1.00
  0.5500000000D+00  0.1000000000D+01
  
  5 0
 s    8  1.00
  0.6665000000D+04  0.6915839628D-03
  0.1000000000D+04  0.5325796153D-02
  0.2280000000D+03  0.2706072104D-01
  0.6471000000D+02  0.1016568461D+00
  0.2106000000D+02  0.2745748236D+00
  0.7495000000D+01  0.4482943189D+00
  0.2797000000D+01  0.2849026107D+00
  0.5215000000D+00  0.1519485921D-01
 s    8  1.00
  0.6665000000D+04 -0.2932696527D-03
  0.1000000000D+04 -0.2318035474D-02
  0.2280000000D+03 -0.1149978604D-01
  0.6471000000D+02 -0.4682672701D-01
  0.2106000000D+02 -0.1284661688D+00
  0.7495000000D+01 -0.3012662725D+00
  0.2797000000D+01 -0.2556307023D+00
  0.5215000000D+00  0.1093793361D+01
 s    1  1.00
  0.1596000000D+00  0.1000000000D+01
 p    3  1.00
  0.9439000000D+01  0.5697925159D-01
  0.2002000000D+01  0.3132072115D+00
  0.5456000000D+00  0.7603767417D+00
 p    1  1.00
  0.1517000000D+00  0.1000000000D+01
 d    1  1.00
  0.5500000000D+00  0.1000000000D+01
  
  9 0
 s    8  1.00
  0.6665000000D+04  0.6915839628D-03
  0.1000000000D+04  0.5325796153D-02
  0.2280000000D+03  0.2706072104D-01
  0.6471000000D+02  0.1016568461D+00
  0.2106000000D+02  0.2745748236D+00
  0.7495000000D+01  0.4482943189D+00
  0.2797000000D+01  0.2849026107D+00
  0.5215000000D+00  0.1519485921D-01
 s    8  1.00
  0.6665000000D+04 -0.2932696527D-03
  0.1000000000D+04 -0.2318035474D-02
  0.2280000000D+03 -0.1149978604D-01
  0.6471000000D+02 -0.4682672701D-01
  0.2106000000D+02 -0.1284661688D+00
  0.7495000000D+01 -0.3012662725D+00
  0.2797000000D+01 -0.2556307023D+00
  0.5215000000D+00  0.1093793361D+01
 s    1  1.00
  0.1596000000D+00  0.1000000000D+01
 p    3  1.00
  0.9439000000D+01  0.5697925159D-01
  0.2002000000D+01  0.3132072115D+00
  0.5456000000D+00  0.7603767417D+00
 p    1  1.00
  0.1517000000D+00  0.1000000000D+01
 d    1  1.00
  0.5500000000D+00  0.1000000000D+01
  
 10 0
 s    8  1.00
  0.6665000000D+04  0.6915839628D-03
  0.1000000000D+04  0.5325796153D-02
  0.2280000000D+03  0.2706072104D-01
  0.6471000000D+02  0.1016568461D+00
  0.2106000000D+02  0.2745748236D+00
  0.7495000000D+01  0.4482943189D+00
  0.2797000000D+01  0.2849026107D+00
  0.5215000000D+00  0.1519485921D-01
 s    8  1.00
  0.6665000000D+04 -0.2932696527D-03
  0.1000000000D+04 -0.2318035474D-02
  0.2280000000D+03 -0.1149978604D-01
  0.6471000000D+02 -0.4682672701D-01
  0.2106000000D+02 -0.1284661688D+00
  0.7495000000D+01 -0.3012662725D+00
  0.2797000000D+01 -0.2556307023D+00
  0.5215000000D+00  0.1093793361D+01
 s    1  1.00
  0.1596000000D+00  0.1000000000D+01
 p    3  1.00
  0.9439000000D+01  0.5697925159D-01
  0.2002000000D+01  0.3132072115D+00
  0.5456000000D+00  0.7603767417D+00
 p    1  1.00
  0.1517000000D+00  0.1000000000D+01
 d    1  1.00
  0.5500000000D+00  0.1000000000D+01
  
  3 0
 s    3  1.00
  0.1301000000D+02  0.3349872639D-01
  0.1962000000D+01  0.2348008012D+00
  0.4446000000D+00  0.8136829579D+00
 s    1  1.00
  0.1220000000D+00  0.1000000000D+01
 p    1  1.00
  0.7270000000D+00  0.1000000000D+01
  
  8 0
 s    3  1.00
  0.1301000000D+02  0.3349872639D-01
  0.1962000000D+01  0.2348008012D+00
  0.4446000000D+00  0.8136829579D+00
 s    1  1.00
  0.1220000000D+00  0.1000000000D+01
 p    1  1.00
  0.7270000000D+00  0.1000000000D+01
  
  4 0
 s    3  1.00
  0.1301000000D+02  0.3349872639D-01
  0.1962000000D+01  0.2348008012D+00
  0.4446000000D+00  0.8136829579D+00
 s    1  1.00
  0.1220000000D+00  0.1000000000D+01
 p    1  1.00
  0.7270000000D+00  0.1000000000D+01
  
  7 0
 s    3  1.00
  0.1301000000D+02  0.3349872639D-01
  0.1962000000D+01  0.2348008012D+00
  0.4446000000D+00  0.8136829579D+00
 s    1  1.00
  0.1220000000D+00  0.1000000000D+01
 p    1  1.00
  0.7270000000D+00  0.1000000000D+01
  
 11 0
 s    3  1.00
  0.1301000000D+02  0.3349872639D-01
  0.1962000000D+01  0.2348008012D+00
  0.4446000000D+00  0.8136829579D+00
 s    1  1.00
  0.1220000000D+00  0.1000000000D+01
 p    1  1.00
  0.7270000000D+00  0.1000000000D+01
  
 12 0
 s    3  1.00
  0.1301000000D+02  0.3349872639D-01
  0.1962000000D+01  0.2348008012D+00
  0.4446000000D+00  0.8136829579D+00
 s    1  1.00
  0.1220000000D+00  0.1000000000D+01
 p    1  1.00
  0.7270000000D+00  0.1000000000D+01
 
 
[MO]
 Sym=      1.1
 Ene=     -11.2412
 Spin= Alpha
 Occup=    2.000000
1 0.40962292564352
2 0.001423541341246
3 -0.001852641429977
4 0.000092429939248
5 0.0
6 0.0
7 -0.000230094085700
8 0.0
9 0.0
10 0.000110957055553
11 -0.000061792362068
12 -0.000049164693485
13 0.0
14 0.0
15 0.0
16 0.40962292564352
17 0.001423541341246
18 -0.001852641429977
19 -0.000092429939248
20 0.0
21 0.0
22 0.000230094085700
23 0.0
24 0.0
25 0.000110957055553
26 -0.000061792362068
27 -0.000049164693485
28 0.0
29 0.0
30 0.0
31 0.40839952056723
32 0.001417922274556
33 -0.001838625004535
34 0.000046117535791
35 0.0
36 -0.000080016596589
37 -0.000116017008021
38 0.0
39 0.000202764013677
40 -0.000009510619675
41 -0.000060762247008
42 0.000070272866683
43 0.0
44 -0.000080072832902
45 0.0
46 0.40839952056723
47 0.001417922274556
48 -0.001838625004535
49 -0.000046117535791
50 0.0
51 -0.000080016596589
52 0.000116017008021
53 0.0
54 0.000202764013677
55 -0.000009510619675
56 -0.000060762247008
57 0.000070272866683
58 0.0
59 0.000080072832902
60 0.0
61 0.40839952056723
62 0.001417922274556
63 -0.001838625004535
64 -0.000046117535791
65 0.0
66 0.000080016596589
67 0.000116017008021
68 0.0
69 -0.000202764013677
70 -0.000009510619675
71 -0.000060762247008
72 0.000070272866683
73 0.0
74 -0.000080072832902
75 0.0
76 0.40839952056723
77 0.001417922274556
78 -0.001838625004535
79 0.000046117535791
80 0.0
81 0.000080016596589
82 -0.000116017008021
83 0.0
84 -0.000202764013677
85 -0.000009510619675
86 -0.000060762247008
87 0.000070272866683
88 0.0
89 0.000080072832902
90 0.0
91 -0.000140523289257
92 0.000691476015322
93 0.000138178838240
94 0.0
95 0.0
96 -0.000140523289257
97 0.000691476015322
98 -0.000138178838240
99 0.0
100 0.0
101 -0.000139807511766
102 0.000691114749571
103 0.000068659409700
104 0.0
105 -0.000118953073832
106 -0.000139807511766
107 0.000691114749571
108 -0.000068659409700
109 0.0
110 -0.000118953073832
111 -0.000139807511766
112 0.000691114749571
113 -0.000068659409700
114 0.0
115 0.000118953073832
116 -0.000139807511766
117 0.000691114749571
118 0.000068659409700
119 0.0
120 0.000118953073832
 Sym=      1.2
 Ene=     -11.2407
 Spin= Alpha
 Occup=    2.000000
1 0.57902279900808
2 0.002447568873781
3 -0.004616711594071
4 0.000049176724002
5 0.0
6 0.0
7 0.000372340788316
8 0.0
9 0.0
10 0.000102523104077
11 -0.000071228677250
12 -0.000031294426827
13 0.0
14 0.0
15 0.0
16 -0.57902279900808
17 -0.002447568873781
18 0.004616711594071
19 0.000049176724002
20 0.0
21 0.0
22 0.000372340788316
23 0.0
24 0.0
25 -0.000102523104077
26 0.000071228677250
27 0.000031294426827
28 0.0
29 0.0
30 0.0
31 0.28866781073708
32 0.001219443109899
33 -0.002291661437714
34 -0.000021489696692
35 0.0
36 -0.000040796391612
37 0.001222653687722
38 0.0
39 0.000498025731048
40 0.000015162489264
41 -0.000034519472639
42 0.000019356983375
43 0.0
44 -0.000043007044364
45 0.0
46 -0.28866781073708
47 -0.001219443109899
48 0.002291661437714
49 -0.000021489696692
50 0.0
51 0.000040796391612
52 0.001222653687722
53 0.0
54 -0.000498025731048
55 -0.000015162489264
56 0.000034519472639
57 -0.000019356983375
58 0.0
59 -0.000043007044364
60 0.0
61 -0.28866781073708
62 -0.001219443109899
63 0.002291661437714
64 -0.000021489696692
65 0.0
66 -0.000040796391612
67 0.001222653687722
68 0.0
69 0.000498025731048
70 -0.000015162489264
71 0.000034519472639
72 -0.000019356983375
73 0.0
74 0.000043007044364
75 0.0
76 0.28866781073708
77 0.001219443109899
78 -0.002291661437714
79 -0.000021489696692
80 0.0
81 0.000040796391612
82 0.001222653687722
83 0.0
84 -0.000498025731048
85 0.000015162489264
86 -0.000034519472639
87 0.000019356983375
88 0.0
89 0.000043007044364
90 0.0
91 -0.000166287016887
92 0.000612717548254
93 0.000242026249203
94 0.0
95 0.0
96 0.000166287016887
97 -0.000612717548254
98 0.000242026249203
99 0.0
100 0.0
101 -0.000082394244387
102 0.000306939567465
103 0.000051799467783
104 0.0
105 -0.000109057366146
106 0.000082394244387
107 -0.000306939567465
108 0.000051799467783
109 0.0
110 0.000109057366146
111 0.000082394244387
112 -0.000306939567465
113 0.000051799467783
114 0.0
115 -0.000109057366146
116 -0.000082394244387
117 0.000306939567465
118 0.000051799467783
119 0.0
120 0.000109057366146
 Sym=      1.5
 Ene=     -11.2407
 Spin= Alpha
 Occup=    2.000000
1 0.0
2 0.0
3 0.0
4 0.0
5 0.0
6 0.000045062959258
7 0.0
8 0.0
9 -0.001510178714557
10 0.0
11 0.0
12 0.0
13 0.0
14 -0.000022464136843
15 0.0
16 0.0
17 0.0
18 0.0
19 0.0
20 0.0
21 0.000045062959258
22 0.0
23 0.0
24 -0.001510178714557
25 0.0
26 0.0
27 0.0
28 0.0
29 0.000022464136843
30 0.0
31 0.50096191961663
32 0.002117235413509
33 -0.003988619247609
34 0.000040806562068
35 0.0
36 -0.000025626649584
37 -0.000494486386821
38 0.0
39 -0.000653690137690
40 -0.000006843483105
41 -0.000061061667448
42 0.000067905150553
43 0.0
44 -0.000052253154461
45 0.0
46 0.50096191961663
47 0.002117235413509
48 -0.003988619247609
49 -0.000040806562068
50 0.0
51 -0.000025626649584
52 0.000494486386821
53 0.0
54 -0.000653690137690
55 -0.000006843483105
56 -0.000061061667448
57 0.000067905150553
58 0.0
59 0.000052253154461
60 0.0
61 -0.50096191961663
62 -0.002117235413509
63 0.003988619247609
64 0.000040806562068
65 0.0
66 -0.000025626649584
67 -0.000494486386821
68 0.0
69 -0.000653690137690
70 0.000006843483105
71 0.000061061667448
72 -0.000067905150553
73 0.0
74 0.000052253154461
75 0.0
76 -0.50096191961663
77 -0.002117235413509
78 0.003988619247609
79 -0.000040806562068
80 0.0
81 -0.000025626649584
82 0.000494486386821
83 0.0
84 -0.000653690137690
85 0.000006843483105
86 0.000061061667448
87 -0.000067905150553
88 0.0
89 -0.000052253154461
90 0.0
91 0.0
92 0.0
93 0.0
94 0.0
95 0.000011182915781
96 0.0
97 0.0
98 0.0
99 0.0
100 0.000011182915781
101 -0.000143597528997
102 0.000531019472010
103 0.000109444422715
104 0.0
105 -0.000178382332447
106 -0.000143597528997
107 0.000531019472010
108 -0.000109444422715
109 0.0
110 -0.000178382332447
111 0.000143597528997
112 -0.000531019472010
113 0.000109444422715
114 0.0
115 -0.000178382332447
116 0.000143597528997
117 -0.000531019472010
118 -0.000109444422715
119 0.0
120 -0.000178382332447
 Sym=      2.1
 Ene=     -11.2395
 Spin= Alpha
 Occup=    2.000000
1 0.57816695976859
2 0.002683760442082
3 -0.006519594455843
4 0.000043990336689
5 0.0
6 0.0
7 0.001519832337800
8 0.0
9 0.0
10 0.000297421888869
11 -0.000500858908098
12 0.000203437019229
13 0.0
14 0.0
15 0.0
16 0.57816695976859
17 0.002683760442082
18 -0.006519594455843
19 -0.000043990336689
20 0.0
21 0.0
22 -0.001519832337800
23 0.0
24 0.0
25 0.000297421888869
26 -0.000500858908098
27 0.000203437019229
28 0.0
29 0.0
30 0.0
31 -0.28994769746095
32 -0.001344940127810
33 0.003263721702263
34 -0.000055225701547
35 0.0
36 -0.000006226322090
37 0.000151781171073
38 0.0
39 0.000964526633788
40 -0.000021384777013
41 0.000250564815494
42 -0.000229180038481
43 0.0
44 -0.000037689201230
45 0.0
46 -0.28994769746095
47 -0.001344940127810
48 0.003263721702263
49 0.000055225701547
50 0.0
51 -0.000006226322090
52 -0.000151781171073
53 0.0
54 0.000964526633788
55 -0.000021384777013
56 0.000250564815494
57 -0.000229180038481
58 0.0
59 0.000037689201230
60 0.0
61 -0.28994769746095
62 -0.001344940127810
63 0.003263721702263
64 0.000055225701547
65 0.0
66 0.000006226322090
67 -0.000151781171073
68 0.0
69 -0.000964526633788
70 -0.000021384777013
71 0.000250564815494
72 -0.000229180038481
73 0.0
74 -0.000037689201230
75 0.0
76 -0.28994769746095
77 -0.001344940127810
78 0.003263721702263
79 -0.000055225701547
80 0.0
81 0.000006226322090
82 0.000151781171073
83 0.0
84 -0.000964526633788
85 -0.000021384777013
86 0.000250564815494
87 -0.000229180038481
88 0.0
89 0.000037689201230
90 0.0
91 -0.000347450486736
92 0.000256787832109
93 0.000391091305770
94 0.0
95 0.0
96 -0.000347450486736
97 0.000256787832109
98 -0.000391091305770
99 0.0
100 0.0
101 0.000174058285824
102 -0.000129876875332
103 -0.000107463250294
104 0.0
105 0.000164085807285
106 0.000174058285824
107 -0.000129876875332
108 0.000107463250294
109 0.0
110 0.000164085807285
111 0.000174058285824
112 -0.000129876875332
113 0.000107463250294
114 0.0
115 -0.000164085807285
116 0.000174058285824
117 -0.000129876875332
118 -0.000107463250294
119 0.0
120 -0.000164085807285
 Sym=      1.6
 Ene=     -11.2395
 Spin= Alpha
 Occup=    2.000000
1 0.0
2 0.0
3 0.0
4 0.0
5 0.0
6 0.000058841957973
7 0.0
8 0.0
9 -0.000708696354219
10 0.0
11 0.0
12 0.0
13 0.0
14 -0.000141739541203
15 0.0
16 0.0
17 0.0
18 0.0
19 0.0
20 0.0
21 -0.000058841957973
22 0.0
23 0.0
24 0.000708696354219
25 0.0
26 0.0
27 0.0
28 0.0
29 -0.000141739541203
30 0.0
31 0.50120673967019
32 0.002326020079465
33 -0.005648365872054
34 -0.000006323011463
35 0.0
36 -0.000047844976356
37 0.000964711935216
38 0.0
39 -0.000962454201471
40 0.000249634003881
41 -0.000433848140066
42 0.000184214136185
43 0.0
44 -0.000076217514480
45 0.0
46 -0.50120673967019
47 -0.002326020079465
48 0.005648365872054
49 -0.000006323011463
50 0.0
51 0.000047844976356
52 0.000964711935216
53 0.0
54 0.000962454201471
55 -0.000249634003881
56 0.000433848140066
57 -0.000184214136185
58 0.0
59 -0.000076217514480
60 0.0
61 0.50120673967019
62 0.002326020079465
63 -0.005648365872054
64 0.000006323011463
65 0.0
66 0.000047844976356
67 -0.000964711935216
68 0.0
69 0.000962454201471
70 0.000249634003881
71 -0.000433848140066
72 0.000184214136185
73 0.0
74 -0.000076217514480
75 0.0
76 -0.50120673967019
77 -0.002326020079465
78 0.005648365872054
79 0.000006323011463
80 0.0
81 -0.000047844976356
82 -0.000964711935216
83 0.0
84 -0.000962454201471
85 -0.000249634003881
86 0.000433848140066
87 -0.000184214136185
88 0.0
89 -0.000076217514480
90 0.0
91 0.0
92 0.0
93 0.0
94 0.0
95 0.000012736354117
96 0.0
97 0.0
98 0.0
99 0.0
100 -0.000012736354117
101 -0.000301123547472
102 0.000223299276378
103 0.000163922853452
104 0.0
105 -0.000296633370536
106 0.000301123547472
107 -0.000223299276378
108 0.000163922853452
109 0.0
110 0.000296633370536
111 -0.000301123547472
112 0.000223299276378
113 -0.000163922853452
114 0.0
115 0.000296633370536
116 0.000301123547472
117 -0.000223299276378
118 -0.000163922853452
119 0.0
120 -0.000296633370536
 Sym=      2.2
 Ene=     -11.2390
 Spin= Alpha
 Occup=    2.000000
1 -0.40860268499789
2 -0.002107383678478
3 0.007742513721618
4 -0.000011800229508
5 0.0
6 0.0
7 -0.002736984301812
8 0.0
9 0.0
10 -0.000356244554349
11 0.000547664213479
12 -0.000191419659130
13 0.0
14 0.0
15 0.0
16 0.40860268499789
17 0.002107383678478
18 -0.007742513721618
19 -0.000011800229508
20 0.0
21 0.0
22 -0.002736984301812
23 0.0
24 0.0
25 0.000356244554349
26 -0.000547664213479
27 0.000191419659130
28 0.0
29 0.0
30 0.0
31 0.40979464258115
32 0.002112479400499
33 -0.007751888726020
34 0.000005941836968
35 0.0
36 -0.000010383894314
37 0.001370364429624
38 0.0
39 -0.002370085225005
40 0.000232624618242
41 -0.000547815340864
42 0.000315190722623
43 0.0
44 -0.000082561187371
45 0.0
46 -0.40979464258115
47 -0.002112479400499
48 0.007751888726020
49 0.000005941836968
50 0.0
51 0.000010383894314
52 0.001370364429624
53 0.0
54 0.002370085225005
55 -0.000232624618242
56 0.000547815340864
57 -0.000315190722623
58 0.0
59 -0.000082561187371
60 0.0
61 -0.40979464258115
62 -0.002112479400499
63 0.007751888726020
64 0.000005941836968
65 0.0
66 -0.000010383894314
67 0.001370364429624
68 0.0
69 -0.002370085225005
70 -0.000232624618242
71 0.000547815340864
72 -0.000315190722623
73 0.0
74 0.000082561187371
75 0.0
76 0.40979464258115
77 0.002112479400499
78 -0.007751888726020
79 0.000005941836968
80 0.0
81 0.000010383894314
82 0.001370364429624
83 0.0
84 0.002370085225005
85 0.000232624618242
86 -0.000547815340864
87 0.000315190722623
88 0.0
89 0.000082561187371
90 0.0
91 0.000368668393596
92 0.000191269517788
93 -0.000327265917657
94 0.0
95 0.0
96 -0.000368668393596
97 -0.000191269517788
98 -0.000327265917657
99 0.0
100 0.0
101 -0.000369068829782
102 -0.000190001299004
103 0.000163867000062
104 0.0
105 -0.000283849715975
106 0.000369068829782
107 0.000190001299004
108 0.000163867000062
109 0.0
110 0.000283849715975
111 0.000369068829782
112 0.000190001299004
113 0.000163867000062
114 0.0
115 -0.000283849715975
116 -0.000369068829782
117 -0.000190001299004
118 0.000163867000062
119 0.0
120 0.000283849715975
 Sym=      3.1
 Ene=      -1.1448
 Spin= Alpha
 Occup=    2.000000
1 -0.011568395667336
2 0.17995474891224
3 0.10053657652132
4 -0.064224429263341
5 0.0
6 0.0
7 -0.012011540244270
8 0.0
9 0.0
10 -0.000431154755415
11 -0.009023542057125
12 0.009454696812540
13 0.0
14 0.0
15 0.0
16 -0.011568395667336
17 0.17995474891224
18 0.10053657652132