[Molden Format]
[Molpro variables]
_NUMVAR=  784.0000000000000    
_AVOGAD= 0.6022136736000000E+24
_BOLTZ= 0.1380658000000000E-22
_CLIGHT=  29979245800.00000    
_EV2006= 0.3674930886769165E-01
_EV= 0.3674932534394180E-01
_ENULL= 0.8854187817000000E-11
_KJOULE= 0.3808798324128737E-03
_KJOULE/MOL= 0.3808798324128737E-03
_CM= 0.4556335267302901E-05
_CM-1= 0.4556335267302901E-05
_DEB2SI= 0.3335641000000000E-29
_AMU2AU=  1822.888390000000    
_KCAL= 0.1593601117815568E-02
_KCAL/MOL= 0.1593601117815568E-02
_KELVIN2006= 0.3166828861084835E-05
_KELVIN= 0.3166814820820034E-05
_JOULE= 0.4359748200000000E-17
_HERTZ2006= 0.1519829850815779E-15
_HERTZ= 0.1519829846011223E-15
_HZ2006= 0.1519829850815779E-15
_HZ= 0.1519829846011223E-15
_JPCAL=  4.184000000000000    
_PLANCK= 0.6626075540000000E-33
_TOA2006= 0.5291772490000000    
_TOA= 0.5291772090000000    
_TOANG2006= 0.5291772490000000    
_TOANG= 0.5291772090000000    
_TORAD= 0.1745329251994330E-01
_TOCM=  219474.6306700000    
_TODEBYE=  2.541580000000000    
_TOEV2006=  27.21139610000000    
_TOE= 0.4803242000000000E-09
_TOEV=  27.21138390000000    
_TOHERTZ2006=  6579683899900000.    
_TOHERTZ=  6579683920700000.    
_TOHZ2006=  6579683899900000.    
_TOHZ=  6579683920700000.    
_TOK2006=  315773.3000000000    
_TOK=  315774.7000000000    
_TOKCAL=  627.5096000000000    
_TOKELVIN2006=  315773.3000000000    
_TOKELVIN=  315774.7000000000    
_TOKJ=  2625.500000000000    
_TOKJOULE=  2625.500000000000    
_TOKG= 0.1660565586000000E-26
_ANG2006=  1.889725988578923    
_ANG=  1.889726131421507    
_ANGSTROM2006=  1.889725988578923    
_ANGSTROM=  1.889726131421507    
_RPAREF=  0.000000000000000    
_RPADISS=  0.000000000000000    
_IGNORE_UNDEF=  2.000000000000000    
_STRICTCHECK=  0.000000000000000    
_SEW_ONEEL=  0.000000000000000    
_CPPDONE=FALSE
_DKROLL_DONE=  0.000000000000000    
_FOCKDONE=TRUE
_GRADONE=FALSE
_HESSDONE=FALSE
_INTDONE=TRUE
_SCFDONE=TRUE
_MODUL_BLOCK=FALSE
_MODUL_CUDA=FALSE
_MODUL_SLATER=FALSE
_MODUL_MRCC=FALSE
_MODUL_NBO6=FALSE
_MODUL_NECI=TRUE
_MODUL_AIMS=TRUE
_MRCC_EXEC=
_FITC_AO_SAVED=FALSE
_FITC_MO_SAVED=FALSE
_SHARED_FS=TRUE
_LSTYP=SEWARD
_INTYP=INTS
_GEOMTYP=ZMAT
_GRADTYP=ALASKA
_DIRECT=FALSE
_DKHO= -1.000000000000000    
_SYNCM=  0.000000000000000    
_BASIS=USERDEF
_ZORIENT=  1.000000000000000    
_NELEC=  24.00000000000000    
!SPIN=  0.000000000000000    
_QSDSTEP=  0.000000000000000    
_QSDIRC=  0.000000000000000    
_PROGRAM=HF-SCF
_CPUSTEP=  3.310000000000000    
_SYSSTEP= 0.1999999999999999E-01
_WALLSTEP=  1.060000000000000    
!DFSCF=  0.000000000000000    
!SCSGRD=  0.000000000000000    
_BASINP=  610.0000000000000    
_CPUTOT=  3.680000000000000    
_CPUSORT= 0.6000000000000000E-01
_SYSSORT= 0.6000000000000001E-01
_WALLSORT= 0.1600000001490116    
_DFTEXFAC=  1.000000000000000    
_DMX=-0.7341826265901914    
_DMY= 0.7585924299982949E-02
_DMZ= 0.6154468794861609    
_DMX_SCF=-0.7341826265901914    
_DMY_SCF= 0.7585924299982949E-02
_DMZ_SCF= 0.6154468794861609    
_EHOMO=-0.4868765751330819    
_ELUMO=-0.3721539544769019E-01
_ENERGY= -204.3620399510564    
_ENUC=  58.85249957685418    
_EPS1= -20.65559215058692    
_GRADEXFAC=  9999.000000000000    
_GRADMETHOD=  1.000000000000000    
_NMRMETHOD=  0.000000000000000    
!GRID_FREEZE= -1.000000000000000    
_ITERATIONS=  23.00000000000000    
_LASTNELEC=  24.00000000000000    
_LASTSPIN=  0.000000000000000    
_LASTSYM=  1.000000000000000    
_MPP_PROG=  0.000000000000000    
_NPROC_MPP=  1.000000000000000    
_NPROC_MPPX=  1.000000000000000    
_NPROC_SMP=  16.00000000000000    
_NUMSTEP=  0.000000000000000    
_ORBITAL=  2100.200000000000    
_PI=  3.141592653589793    
_SEIG_MIN= 0.2424771728836026E-01
_SEWPROP=TRUE
_STATUS=  1.000000000000000    
_SYSTOT= 0.1100000000000000    
_VERSION=  2012001.000000000    
_WALLTOT=  2.970000000000000    
_DATE=24-Jan-19
_LASTORB=RHF
_MACHINE=Linux-4.9.0-8-amd64/nympha18.meta.zcu.cz(x86_64) (16 PROC) 64 bit serial version
_OUTPUT=/auto/brno2/home/masiz4am/git/UKRmol-in/tests/suite/C1_target_HF1/molpro.xml
_PGROUP=C1
_TIME=16:15:52
_LIBMOL=/afs/ics.muni.cz/software/molpro-2012.1/molprop_2012_1_Linux_x86_64_i8/lib/
!VIBCNT=  0.000000000000000    
!RGHFCNT=  0.000000000000000    
!SURFREC=  0.000000000000000    
!POLYREC=  0.000000000000000    
!DIPREC=  0.000000000000000    
!VSCFREC=  0.000000000000000    
!VCIREC=  0.000000000000000    
!PVCIREC=  0.000000000000000    
!VMP2REC=  0.000000000000000    
!VMCSCFREC=  0.000000000000000    
!VMRCIREC=  0.000000000000000    
!VIBINFO=  0.000000000000000    
!GAREC=  0.000000000000000    
!SCFORB=  21002.00000000000    
!NEWMOL= -1.000000000000000    
!NEWSYM= -1.000000000000000    
_SLFILES=slscratch
_NGSSTO=  9.000000000000000    
_SIN=SIN
_COS=COS
_TAN=TAN
_ACOS=ACOS
_ASIN=ASIN
_ATAN=ATAN
_COSH=COSH
_SINH=SINH
_TANH=TANH
_ABS=ABS
_MOD=MOD
_ERF=ERF
_REFC=REFC
_ERFC=ERFC
_HYPOT=HYPOT
_J0=J0
_J1=J1
_JN=JN
_GAMMA=GAMMA
_LGAMMA=LGAMMA
_Y0=Y0
_Y1=Y1
_YN=YN
_EXP=EXP
_LOG=LOG
_LOG10=LOG10
_SQRT=SQRT
_INT=INT
_NINT=NINT
_MAX=MAX
_MIN=MIN
_COSMO=  0.000000000000000    
_COSMOIT=  0.000000000000000    
_COSMOES=  0.000000000000000    
_COSMOEDS=  0.000000000000000    
_COSMOEC=  0.000000000000000    
_COSMOEDCORR=  0.000000000000000    
_FEPSI=  1.000000000000000    
_SL_IsMM=  0.000000000000000    
_SL_NSYM=  1.000000000000000    
_SL_System_BitSw=  0.000000000000000    
_SL_Unique_atoms=  0.000000000000000    
_SL_GRAD=  0.000000000000000    
_SL_MAXUPD_Hess=  5.000000000000000    
_SL_N_PRINT_COD=  5.000000000000000    
_SL_PRINT_CODES=  0.000000000000000    
_SL_BasType=  0.000000000000000    
_SL_Energy_Pred=  0.000000000000000    
_SL_New_Coords=  0.000000000000000    
_SL_Total_Nuclea=  0.000000000000000    
_SL_Highest_Mltp=  0.000000000000000    
_SL_Ref_Geom=  0.000000000000000    
_SL_Symmetry_ope=  1.000000000000000    
_SL_agrad=  0.000000000000000    
_SL_GrdMax=  0.000000000000000    
_SL_GrdNorm=  0.000000000000000    
_SL_GrdRMS=  0.000000000000000    
!LATTICE= -1.000000000000000    
!NEWLATTICE=  0.000000000000000    
!LATGRAD_VAR=FALSE
!SEW_LATTICE=  1.000000000000000    
!LOCAL=  0.000000000000000    
!SAVEDOM= -1.000000000000000    
!RESTDOM= -1.000000000000000    
!SAVEDOM_HF= -1.000000000000000    
!RESTDOM_HF= -1.000000000000000    
!HESSREC=  0.000000000000000    
!FREQREC=  0.000000000000000    
!NMODREC=  0.000000000000000    
!GTASKS=  0.000000000000000    
!HTASKS=  0.000000000000000    
!THRCHG= 0.1000000000000000    
!DEBUG= -1.000000000000000    
!CFIT_CPHF=  0.000000000000000    
!RDOMAUX_CPHF=  3.000000000000000    
!THRAO_CPHF= 0.1000000000000000E-09
!THRMO_CPHF= 0.1000000000000000E-08
!THROV_CPHF= 0.1000000000000000E-11
!THRSW_CPHF= 0.1000000000000000E-09
!THRPROD_CPHF= 0.1000000000000000E-08
!THRAOPR_CPHF= 0.1000000000000000E-11
!CFIT_SCFGRD=  0.000000000000000    
!RDOMAUX_SCFGRD=  5.000000000000000    
!THRAO_SCFGRD= 0.1000000000000000E-09
!THRMO_SCFGRD= 0.1000000000000000E-08
!THROV_SCFGRD= 0.1000000000000000E-11
!THRSW_SCFGRD= 0.1000000000000000E-09
!THRPROD_SCFGRD= 0.1000000000000000E-08
!THRAOPR_SCFGRD= 0.1000000000000000E-11
!LOCFIT_SCF=  0.000000000000000    
!LOCFIT_MP2= -1.000000000000000    
_RIDOM=  0.000000000000000    
!CC2_METHOD=  0.000000000000000    
_BASIS2006=FALSE
_SVDDEL= -1.000000000000000    
_SVDDELA= -1.000000000000000    
_SVDDELP= -1.000000000000000    
_SVDDELF= -1.000000000000000    
_SVDDELS= -1.000000000000000    
_SVDDEL_ABS= -1.000000000000000    
_SVDDELA_ABS= -1.000000000000000    
_SVDDELP_ABS= -1.000000000000000    
_SVDDELF_ABS= -1.000000000000000    
_SVDDELS_ABS= -1.000000000000000    
_MAXBASIS=  0.000000000000000    
!OPT_CONICAL=  0.000000000000000    
!CLEARSP_JGRID=  0.000000000000000    
_4EXT_NDISKS=  1.000000000000000    
!ZMP=  0.000000000000000    
_MAXIT_ZMP=  500.0000000000000    
_MAXDIS_ZMP=  100.0000000000000    
_ACCU_ZMP=  14.00000000000000    
_SHIFTA_ZMP= -100.0000000000000    
!EMBEDFLAG=  1.000000000000000    
!EMBED=FALSE
!EMBED_F12=FALSE
!EMBEDNUC=  0.000000000000000    
_EMBEDENERGY=  0.000000000000000    
_KSPACETIME=  0.000000000000000    
_RSPACETIME=  0.000000000000000    
!EMBED_DFC=FALSE
!NUM_VOIDS=  0.000000000000000    
_IBODY=  0.000000000000000    
_EMBE_TOTAL=  0.000000000000000    
_EMBE_HF=  0.000000000000000    
_EMBE_CORR=  0.000000000000000    
!EDFT=  0.000000000000000    
_IFASTLATGRAD=  0.000000000000000    
_SINDEX=  0.000000000000000    
GX1=-0.2073029410000000    
GY1=-0.8885491599999999    
GZ1= 0.4610931400000000E-01
GX2=  2.519949606000000    
GY2= 0.6211529320000000    
GZ2=-0.1965315030000000    
GX3= -2.400518923000000    
GY3=  1.048797924000000    
GZ3=-0.5291232800000000E-01
GX4= -2.567003783000000    
GY4=  1.747051676000000    
GZ4=  1.211503331000000    
[Atoms] Angs
N     1    7        -0.1096999917       -0.4701999645        0.0243999981
O     2    8         1.3334998993        0.3286999749       -0.1039999922
O     3    8        -1.2702999038        0.5549999582       -0.0279999981
H     4    1        -1.3583998974        0.9244999299        0.6410999514
[GTO]
  1 0
 s    8  1.00
  0.9046000000D+04  0.6996174134D-03
  0.1357000000D+04  0.5386054630D-02
  0.3093000000D+03  0.2739102119D-01
  0.8773000000D+02  0.1031505920D+00
  0.2856000000D+02  0.2785706633D+00
  0.1021000000D+02  0.4482948495D+00
  0.3838000000D+01  0.2780859284D+00
  0.7466000000D+00  0.1543156123D-01
 s    8  1.00
  0.9046000000D+04 -0.3049900960D-03
  0.1357000000D+04 -0.2408026379D-02
  0.3093000000D+03 -0.1194444873D-01
  0.8773000000D+02 -0.4892599291D-01
  0.2856000000D+02 -0.1344727247D+00
  0.1021000000D+02 -0.3151125777D+00
  0.3838000000D+01 -0.2428578325D+00
  0.7466000000D+00  0.1094382207D+01
 s    1  1.00
  0.2248000000D+00  0.1000000000D+01
 p    3  1.00
  0.1355000000D+02  0.5890567677D-01
  0.2917000000D+01  0.3204611067D+00
  0.7973000000D+00  0.7530420618D+00
 p    1  1.00
  0.2185000000D+00  0.1000000000D+01
 d    1  1.00
  0.8170000000D+00  0.1000000000D+01
  
  2 0
 s    8  1.00
  0.1172000000D+05  0.7096459465D-03
  0.1759000000D+04  0.5467272292D-02
  0.4008000000D+03  0.2782311861D-01
  0.1137000000D+03  0.1047477397D+00
  0.3703000000D+02  0.2829208464D+00
  0.1327000000D+02  0.4484952387D+00
  0.5025000000D+01  0.2708168852D+00
  0.1013000000D+01  0.1545029161D-01
 s    8  1.00
  0.1172000000D+05 -0.3144434117D-03
  0.1759000000D+04 -0.2482137681D-02
  0.4008000000D+03 -0.1231635538D-01
  0.1137000000D+03 -0.5053891734D-01
  0.3703000000D+02 -0.1393849033D+00
  0.1327000000D+02 -0.3250774948D+00
  0.5025000000D+01 -0.2298483076D+00
  0.1013000000D+01  0.1095379347D+01
 s    1  1.00
  0.3023000000D+00  0.1000000000D+01
 p    3  1.00
  0.1770000000D+02  0.6267916628D-01
  0.3854000000D+01  0.3335365659D+00
  0.1046000000D+01  0.7412396416D+00
 p    1  1.00
  0.2753000000D+00  0.1000000000D+01
 d    1  1.00
  0.1185000000D+01  0.1000000000D+01
  
  3 0
 s    8  1.00
  0.1172000000D+05  0.7096459465D-03
  0.1759000000D+04  0.5467272292D-02
  0.4008000000D+03  0.2782311861D-01
  0.1137000000D+03  0.1047477397D+00
  0.3703000000D+02  0.2829208464D+00
  0.1327000000D+02  0.4484952387D+00
  0.5025000000D+01  0.2708168852D+00
  0.1013000000D+01  0.1545029161D-01
 s    8  1.00
  0.1172000000D+05 -0.3144434117D-03
  0.1759000000D+04 -0.2482137681D-02
  0.4008000000D+03 -0.1231635538D-01
  0.1137000000D+03 -0.5053891734D-01
  0.3703000000D+02 -0.1393849033D+00
  0.1327000000D+02 -0.3250774948D+00
  0.5025000000D+01 -0.2298483076D+00
  0.1013000000D+01  0.1095379347D+01
 s    1  1.00
  0.3023000000D+00  0.1000000000D+01
 p    3  1.00
  0.1770000000D+02  0.6267916628D-01
  0.3854000000D+01  0.3335365659D+00
  0.1046000000D+01  0.7412396416D+00
 p    1  1.00
  0.2753000000D+00  0.1000000000D+01
 d    1  1.00
  0.1185000000D+01  0.1000000000D+01
  
  4 0
 s    3  1.00
  0.1301000000D+02  0.3349872639D-01
  0.1962000000D+01  0.2348008012D+00
  0.4446000000D+00  0.8136829579D+00
 s    1  1.00
  0.1220000000D+00  0.1000000000D+01
 p    1  1.00
  0.7270000000D+00  0.1000000000D+01
 
 
[MO]
 Sym=      1.1
 Ene=     -20.6556
 Spin= Alpha
 Occup=    2.000000
1 -0.000116021269455
2 -0.000215900593036
3 0.001313127705824
4 -0.000149368843935
5 0.000119129091712
6 0.000006770368362
7 -0.000614668533375
8 0.000689141789491
9 -0.000017111257041
10 0.000041408077059
11 0.000039665308319
12 -0.000081073385378
13 -0.000102664875820
14 -0.000024975833799
15 0.000013131293484
16 -0.012645063154470
17 0.000024092289054
18 -0.000089942158647
19 0.000042254446560
20 0.000009710740409
21 0.000000110323410
22 0.000095774034050
23 -0.000044858055603
24 -0.000014899287870
25 -0.000038805991876
26 0.000032299968204
27 0.000006506023671
28 0.000000028202002
29 0.000003842402036
30 -0.000003359675855
31 1.00132751952369
32 0.002172803017059
33 -0.003370694990524
34 0.000660523782168
35 0.000342391400988
36 0.002024756661660
37 -0.001047786277348
38 0.000839031769241
39 -0.000129822688968
40 -0.000380795614436
41 -0.000092369750288
42 0.000473165364725
43 0.000274335383781
44 -0.000161384830718
45 0.000438957426471
46 -0.001639172728175
47 0.000502627803469
48 -0.000080952600721
49 0.000642379066894
50 0.001314900926903
 Sym=      2.1
 Ene=     -20.6549
 Spin= Alpha
 Occup=    2.000000
1 -0.000186433061477
2 -0.000334625113935
3 0.001400927139410
4 0.000104654386099
5 0.000060769155137
6 0.000000948985640
7 0.000874517957666
8 0.000581518545450
9 -0.000089410742445
10 0.000133110036315
11 -0.000017769227544
12 -0.000115340808771
13 0.000150794992424
14 -0.000021320678394
15 -0.000017181560551
16 1.00056890245809
17 0.000132756681264
18 -0.003660214861741
19 -0.000872085491458
20 -0.000452340065328
21 0.000097993034912
22 0.001139898253096
23 0.000602706792735
24 -0.000109298443277
25 -0.000333165918616
26 0.000196951498187
27 0.000136214420429
28 -0.000429985151884
29 0.000141424333230
30 0.000077588135996
31 0.012688050892272
32 0.000047407099317
33 -0.000224956229304
34 -0.000032565851102
35 0.000018457875891
36 0.000031121393456
37 -0.000084794329918
38 -0.000072145679012
39 -0.000016594249785
40 -0.000046528394959
41 0.000028273150337
42 0.000018255244622
43 0.000024579780631
44 0.000007633405293
45 -0.000002849480727
46 -0.000033596562796
47 0.000133317828540
48 -0.000028634905483
49 0.000022017507062
50 -0.000015334484167
 Sym=      3.1
 Ene=     -15.8554
 Spin= Alpha
 Occup=    2.000000
1 1.00064439934447
2 -0.000242991719640
3 -0.004262174128675
4 -0.000295514618197
5 0.001638651619045
6 0.000004394533289
7 0.000166085319480
8 -0.001581192549168
9 0.000058659684756
10 0.000014300999141
11 0.000230468927374
12 -0.000244769926515
13 0.000187371299134
14 0.000034316505899
15 0.000130092263610
16 -0.000165326488319
17 -0.000207703819507
18 0.000991458691434
19 -0.000118041121360
20 -0.000099910751735
21 0.000011213725318
22 -0.000576596945247
23 -0.000089702005763
24 0.000031786823073
25 0.000031756415070
26 -0.000053634650000
27 0.000021878234930
28 -0.000028964923201
29 0.000002221518993
30 0.000003966217276
31 -0.000099768107516
32 -0.000056823343613
33 0.000640809497106
34 0.000125381752734
35 -0.000143754361412
36 -0.000017530676724
37 0.000568617712746
38 -0.000331240813493
39 -0.000203076331259
40 0.000019022275827
41 -0.000033329730914
42 0.000014307455087
43 0.000087390866388
44 -0.000011509758555
45 -0.000009682321549
46 0.000098569684987
47 0.000589465515323
48 0.000083297338297
49 -0.000170237751018
50 -0.000104817560261
 Sym=      4.1
 Ene=      -1.4887
 Spin= Alpha
 Occup=    2.000000
1 -0.000816020740580
2 0.14285079031524
3 0.11567798154643
4 -0.047461513779354
5 0.057163778324762
6 0.003438922593529
7 -0.013979894381374
8 0.024599339633473
9 0.010545391823779
10 0.006063276907006
11 0.005322200945154
12 -0.011385477852160
13 -0.014516155191023
14 -0.003057019249313
15 0.002587067380192
16 -0.000825593289141
17 0.045855503877499
18 0.044230342031724
19 -0.013701839475812
20 -0.004007453570316
21 0.000584593736286
22 -0.004908108932669
23 -0.002163985269400
24 -0.000916559054708
25 0.002007795374420
26 -0.000722966764676
27 -0.001284828609745
28 0.001729117439506
29 -0.000147973016321
30 -0.000034230979677
31 -0.012519549234181
32 0.41643859030986
33 0.32993299768341
34 0.024796182910155
35 0.023548034271514
36 0.10206066837338
37 0.018931121307556
38 -0.026643394240635
39 -0.018367271310807
40 -0.003347633433630
41 -0.001913792205773
42 0.005261425639403
43 -0.007904023005340
44 -0.000125784781152
45 0.007785771567668
46 0.27373295512066
47 -0.004190957506355
48 0.007133693863286
49 -0.024352394281641
50 -0.040837704767294
 Sym=      5.1
 Ene=      -1.2854
 Spin= Alpha
 Occup=    2.000000
1 0.002460480652120
2 0.20002789042378
3 0.18233844187785
4 0.083191916603560
5 0.039368140889556
6 -0.001897825061399
7 0.031942247503630
8 0.019422893952818
9 -0.002449455555017
10 0.008022260176360
11 -0.000947447926884
12 -0.007074812249476
13 0.012678822813270
14 -0.000255065818726
15 -0.001318720011101
16 -0.003415189603732
17 0.42140588622042
18 0.46227908276585
19 -0.034452844635128
20 -0.019426765726255
21 -0.000055977568610
22 -0.020632377509321
23 -0.011666928510694
24 0.001302541935552
25 0.005076133502154
26 -0.001244332337971
27 -0.003831801164183
28 0.005854174816151
29 -0.000484119643735
30 -0.000252301821826
31 0.002143052231842
32 -0.10139041108198
33 -0.082023305661489
34 0.034278389389531
35 -0.039119242967820
36 -0.042765468699787
37 0.009190071027669
38 -0.003029348599790
39 0.004646548490761
40 0.004763242779923
41 0.000391535354190
42 -0.005154778134112
43 -0.002754657984262
44 0.001308923374995
45 -0.003762283266827
46 -0.098912058335322
47 -0.003617858314557
48 -0.000853525561081
49 0.007619584793341
50 0.013425496859837
 Sym=      6.1
 Ene=      -1.0543
 Spin= Alpha
 Occup=    2.000000
1 -0.013473121758604
2 -0.42101746914790
3 -0.41140949623464
4 0.072018885597825
5 0.010857195664979
6 0.002685831403600
7 0.034148299162921
8 0.002789725569051
9 0.001497854052873
10 -0.005809472615465
11 -0.002174205987351
12 0.007983678602817
13 0.009858442428093
14 -0.002348401378637
15 0.001291758102388
16 0.000724717935340
17 0.23957245584662
18 0.29889175873118
19 0.060591241525758
20 0.030833941281970
21 -0.000202220372624
22 0.025723688900086
23 0.015456374471659
24 -0.000808628515262
25 -0.004617219516463
26 0.001790566175883
27 0.002826653340581
28 -0.005452699145013
29 0.001193179427405
30 0.000738450295866
31 -0.000837178981560
32 0.081466146184193
33 0.032022111468180
34 -0.11471247086935
35 0.16082653373582
36 0.10941723791330
37 -0.048662024918331
38 0.052299294795192
39 0.004953745106947
40 -0.009540457300419
41 -0.003371036326483
42 0.012911493626902
43 0.012361957666184
44 -0.003691017392357
45 0.009175449329858
46 0.19950973739481
47 0.020051718211246
48 0.000698416808177
49 -0.011224408097785
50 -0.024783720699484
 Sym=      7.1
 Ene=      -0.7677
 Spin= Alpha
 Occup=    2.000000
1 0.007208023722549
2 0.16269112048076
3 0.20532140741725
4 0.17061140584395
5 -0.10990277309034
6 0.057866373274151
7 0.086285360289937
8 -0.051449122828070
9 0.049718892039007
10 -0.003632502632240
11 -0.002428973461149
12 0.006061476093389
13 0.020356358373206
14 -0.009020283660356
15 0.010718133319139
16 -0.001016598989713
17 -0.072995585736868
18 -0.11214212076220
19 -0.054297234813477
20 -0.074816895520384
21 0.020659670018010
22 -0.031133611233991
23 -0.043298425103632
24 0.013079042864076
25 0.003203554742900
26 -0.000082777393101
27 -0.003120777349799
28 0.006861220942758
29 -0.002096811052568
30 -0.001165437594797
31 0.000074385910657
32 -0.14640315294777
33 -0.34849891929175
34 -0.025743377754368
35 0.22673155945883
36 0.42655411177320
37 -0.009842743202575
38 0.10115610572499
39 0.19685703834079
40 -0.012869245178287
41 -0.007885231226846
42 0.020754476405133
43 0.006745341389240
44 0.004027539502373
45 0.011335237064263
46 0.33506231950993
47 0.018591669855956
48 0.008679908149373
49 -0.017336329735389
50 -0.023410303607432
 Sym=      8.1
 Ene=      -0.6449
 Spin= Alpha
 Occup=    2.000000
1 0.006276791080171
2 0.060614450760624
3 0.074596789823837
4 -0.096579861087088
5 -0.34567330868474
6 -0.007722530704389
7 -0.066856762415727
8 -0.22054522015597
9 -0.003600418937269
10 0.009029281286318
11 -0.021571070780466
12 0.012541789494148
13 0.002498840364737
14 -0.000972854904763
15 0.001232414016226
16 0.000305076322528
17 0.053769823615436
18 0.10256186670264
19 0.16843694370099
20 -0.089726419285803
21 0.004692375483592
22 0.10491287578506
23 -0.065587236950765
24 0.003063890574213
25 -0.009482817009771
26 0.005254482956855
27 0.004228334052916
28 -0.002649118205271
29 0.001341146080537
30 0.000242459717783
31 0.000854738609568
32 0.028531250803608
33 0.043108089965678
34 -0.40052612554152
35 -0.24082947786921
36 0.056360804722895
37 -0.27089242793350
38 -0.17127916026575
39 0.034008051938026
40 -0.012826202848665
41 0.005825098041638
42 0.007001104807026
43 0.000812023235724
44 -0.010019204257551
45 -0.006208063868093
46 0.006064406973644
47 0.017616018027709
48 -0.022805379699021
49 -0.015224897963249
50 0.002934892197487
 Sym=      9.1
 Ene=      -0.6215
 Spin= Alpha
 Occup=    2.000000
1 -0.003682292784882
2 -0.059764820586952
3 -0.095908849240254
4 -0.29861626381507
5 0.13455339542542
6 0.095559674312270
7 -0.16657174674971
8 0.077831016915029
9 0.081564180835171
10 0.001599046432894
11 0.006358501065164
12 -0.007957547498058
13 -0.029156091394213
14 -0.005963153968361
15 0.011519901268144
16 0.002202643944942
17 0.065950775306405
18 0.10718294974365
19 0.062976957634572
20 0.19666093042257
21 0.071791432094662
22 0.044765144864534
23 0.12730524708625
24 0.049752983833940
25 -0.004127743996957
26 -0.001108548068844
27 0.005236292065801
28 -0.010078576482683
29 -0.001240169738680
30 -0.000046239486686
31 -0.004307925965223
32 -0.093889402977126
33 -0.15109378406107
34 0.14481814605959
35 -0.29058896383216
36 0.32002637933133
37 0.10647009589339
38 -0.20299334631275
39 0.23211837613806
40 -0.000864227353332
41 -0.003885968996581
42 0.004750196349913
43 -0.013550927106919
44 0.010992297770024
45 -0.008928624238586
46 0.035357953857515
47 -0.012793378828381
48 0.007268124429402
49 -0.020178624911847
50 0.010999399722429
 Sym=     10.1
 Ene=      -0.5170
 Spin= Alpha
 Occup=    2.000000
1 -0.004595489419222
2 -0.035139555096797
3 -0.038014376097299
4 0.27752264593228
5 0.27382582501706
6 0.051658691721802
7 0.15578420853528
8 0.19384284820729
9 0.039259839883168
10 0.010035057368217
11 -0.001176403012336
12 -0.008858654355881
13 0.022970494873837
14 -0.002390569541560
15 0.002119954572140
16 -0.002059443685591
17 -0.065476981613856
18 -0.12685621096967
19 -0.32677683200612
20 0.10598460754705
21 0.005881268870203
22 -0.23176220832353
23 0.072343041528260
24 0.006412452127727
25 0.013735168567715
26 -0.006228586330943
27 -0.007506582236772
28 0.010430136177777
29 -0.003323346067673
30 -0.001370898368763
31 0.001069815139093
32 0.019023563749016
33 0.032579748877073
34 -0.32544638196306
35 -0.27070002405151
36 0.050296261472385
37 -0.25421436337694
38 -0.19469955183100
39 0.046212682036528
40 0.000214947199586
41 -0.004068469804301
42 0.003853522604715
43 0.000146173704888
44 -0.006870141076464
45 -0.008461286134642
46 -0.034430404175321
47 0.003717227003105
48 -0.018209309031250
49 -0.016455662543196
50 0.007318080032649
 Sym=     11.1
 Ene=      -0.5037
 Spin= Alpha
 Occup=    2.000000
1 0.005234536416657
2 0.073153310720823
3 0.11706334150808
4 -0.083743810715252
5 -0.25388131419078
6 -0.081990398659509
7 -0.076870990611129
8 -0.15318996342524
9 -0.071694316069595
10 -0.016009875828826
11 0.004238982020524
12 0.011770893808302
13 0.010313794765683
14 -0.001056195701917
15 -0.005948009123757
16 -0.000197236967456
17 0.021906639159865
18 0.054632877568268
19 -0.19296236495469
20 0.54006150414698
21 -0.10715269808429
22 -0.14728616995702
23 0.39278575289983
24 -0.082792158343550
25 0.000604436403271
26 -0.003170504652994
27 0.002566068249723
28 -0.007875653228127
29 0.003798947438009
30 0.002647320018022
31 0.002306165752297
32 -0.011789316611540
33 -0.063666066435475
34 -0.067280720562876
35 0.14784530351119
36 -0.038515595313298
37 -0.042669046987178
38 0.11588241192373
39 -0.048471565104096
40 -0.004109602179019
41 0.003390096268635
42 0.000719505910384
43 0.005463360347182
44 -0.004254018959000
45 0.005732089516717
46 0.044502295198343
47 0.032599120379527
48 -0.002841645499104
49 0.004433189428330
50 -0.008428952057917
 Sym=     12.1
 Ene=      -0.4869
 Spin= Alpha
 Occup=    2.000000
1 0.001417451935061
2 0.030406663187778
3 0.058852853832368
4 0.049218512946805
5 -0.055575286539814
6 0.18563263951114
7 0.033734730048355
8 -0.031110381897466
9 0.17161085974560
10 -0.003762029521217
11 0.001021489304000
12 0.002740540217216
13 0.006157413582443
14 0.019892122611837
15 0.011922085589806
16 -0.000302980632781
17 -0.008246058741282
18 -0.013858742109534
19 0.042975000391336
20 0.12898578280062
21 0.54995289657762
22 0.032254447241302
23 0.097428569164392
24 0.42923145419908
25 -0.001509287794280
26 -0.000694282681042
27 0.002203570475322
28 -0.001638172164450
29 -0.012581627024784
30 -0.006681995360418
31 0.001274686027490
32 0.025844475895394
33 0.044978625933626
34 -0.036335362062320
35 0.086550586808302
36 -0.12943281033898
37 -0.026736305880353
38 0.067160116347959
39 -0.10211081681168
40 0.001506087766909
41 0.002418706879348
42 -0.003924794646257
43 0.003613281976255
44 0.000080069444651
45 -0.000993250091675
46 -0.039990124493767
47 0.020462280501524
48 -0.000493474975335
49 0.006836299953848
50 -0.004300119540422
 Sym=     13.1
 Ene=      -0.0372
 Spin= Alpha
 Occup=    0.000000
1 -0.002699967666446
2 0.004287475876491
3 0.045780045727640
4 -0.000921693988026
5 -0.012848049041482
6 0.53615258550961
7 -0.008521635228404
8 -0.007882389998237
9 0.53662186843808
10 -0.004743266240396
11 -0.000737324711064
12 0.005480590951460
13 -0.001047274326649
14 -0.008377908842017
15 0.007338822044964
16 -0.000119751460597
17 0.004783843243768
18 0.016988887309374
19 0.022736982909132
20 0.012777036138139
21 -0.29507969950619
22 0.021635917400343
23 0.012403766368104
24 -0.27179987847095
25 -0.002395252869755
26 0.000287866923939
27 0.002107385945815
28 -0.002281260963175
29 -0.005706466705549
30 -0.003262736259788
31 -0.000750940212812
32 0.016505020110437
33 0.048521283599423
34 -0.020010861473860
35 0.059134880508845
36 -0.13186319761294
37 -0.023439190545896
38 0.066382010859579
39 -0.10607736245709
40 0.002270214583306
41 0.002996482442929
42 -0.005266697026236
43 0.001493289643562
44 0.008238310276063
45 -0.010181692863858
46 -0.089021610657831
47 0.033190549459747
48 0.004386663523809
49 0.001206536708046
50 -0.003954384044900
 Sym=     14.1
 Ene=       0.1471
 Spin= Alpha
 Occup=    0.000000
1 0.018380421921356
2 0.21641411177977
3 0.41833462471299
4 -0.061986438334558
5 0.40071566542539
6 -0.056256174776809
7 -0.059414015168039
8 0.46967619243904
9 -0.095719978389560
10 -0.022121348217815
11 0.005226112728836
12 0.016895235488979
13 0.000858271723898
14 0.001696042899536
15 0.000945818863227
16 0.002846212509701
17 -0.057317453577692
18 -0.17762414131387
19 0.32547396404656
20 0.081048256314654
21 -0.031391954479075
22 0.40102071312477
23 0.11547443607438
24 -0.042683995486870
25 0.006032037824925
26 -0.005454878158767
27 -0.000577159666158
28 -0.000870919759775
29 0.000440157115030
30 0.001285941622889
31 0.017770767139806
32 -0.11517725590097
33 -0.64445089935518
34 -0.26392622354278
35 0.14681214650360
36 -0.061328222547421
37 -0.33561554629924
38 0.16678779353892
39 -0.11883226398068
40 0.010323301043819
41 0.000327493578787
42 -0.010650794622606
43 -0.011691205448336
44 -0.006578457730852
45 0.000543232956217
46 0.057755623201637
47 0.50172167947323
48 -0.022601842121926
49 0.004853983576779
50 -0.019446517227985
 Sym=     15.1
 Ene=       0.1755
 Spin= Alpha
 Occup=    0.000000
1 0.001752461712579
2 0.078882901341116
3 0.26164002407106
4 0.40107157482776
5 0.033721287370035
6 -0.007854907089963
7 0.46967264816529
8 0.097666004350864
9 -0.017209053226780
10 -0.012237603174858
11 0.007955231898350
12 0.004282371276508
13 -0.020927178812248
14 0.002483690609077
15 0.000476713415963
16 0.004261731096761
17 -0.066925203397972
18 -0.24197145391947
19 0.30775088656333
20 0.22878224512717
21 -0.045514818876225
22 0.41423394159930
23 0.27522521349252
24 -0.065284340707339
25 0.000327165206350
26 0.002257568098402
27 -0.002584733304752
28 0.006293189356075
29 0.000104452139705
30 -0.000964124416984
31 -0.018458704129925
32 0.085614282770861
33 0.66174652492976
34 0.040860934075680
35 -0.080643018837746
36 0.094503951881566
37 0.025099195972828
38 -0.034637113989910
39 0.18722732835159
40 -0.000687705185010
41 -0.010838496728810
42 0.011526201913821
43 0.002857068835052
44 -0.000657054484230
45 0.006385979696612
46 -0.043568613766107
47 -0.86602491711709
48 0.005852712292037
49 -0.001741309182085
50 0.028760358253803
 Sym=     16.1
 Ene=       0.2334
 Spin= Alpha
 Occup=    0.000000
1 -0.002557111093403
2 -0.092740154685025
3 -0.37447609360987
4 0.33220684481652
5 -0.14612261405723
6 -0.038176912926746
7 0.54176490568429
8 -0.30937722582396
9 -0.034178922094381
10 -0.005307950281290
11 0.000912603105001
12 0.004395347176290
13 -0.012131099226935
14 0.001081966693259
15 0.000644213852780
16 -0.004236568983503
17 -0.055128785091710
18 -0.12195169106686
19 0.10291241627677
20 0.085829842672006
21 -0.028043437718067
22 0.14358357966871
23 0.12937103357361
24 -0.033129521329797
25 -0.002881683815691
26 0.004375777487777
27 -0.001494093672086
28 0.001449510492739
29 -0.000104007158686
30 0.000353515485221
31 0.018127972891964
32 0.023425531693618
33 -0.38829572164956
34 0.21172623996130
35 -0.25686876333276
36 -0.086334345692119
37 0.39519975841418
38 -0.47836298163959
39 -0.20850839320092
40 0.008415604927275
41 -0.004924666830419
42 -0.003490938096856
43 0.013523362989922
44 0.007121939528977
45 -0.016504912414796
46 0.005315846970502
47 1.33960678243493
48 0.014041000609819
49 -0.027538925986717