[Molden Format]
[Molpro variables]
_NUMVAR=  814.0000000000000    
_AVOGAD= 0.6022136736000000E+24
_BOLTZ= 0.1380658000000000E-22
_CLIGHT=  29979245800.00000    
_EV2006= 0.3674930886769165E-01
_EV= 0.3674932534394180E-01
_ENULL= 0.8854187817000000E-11
_KJOULE= 0.3808798324128737E-03
_KJOULE/MOL= 0.3808798324128737E-03
_CM= 0.4556335267302901E-05
_CM-1= 0.4556335267302901E-05
_DEB2SI= 0.3335641000000000E-29
_AMU2AU=  1822.888390000000    
_KCAL= 0.1593601117815568E-02
_KCAL/MOL= 0.1593601117815568E-02
_KELVIN2006= 0.3166828861084835E-05
_KELVIN= 0.3166814820820034E-05
_JOULE= 0.4359748200000000E-17
_HERTZ2006= 0.1519829850815779E-15
_HERTZ= 0.1519829846011223E-15
_HZ2006= 0.1519829850815779E-15
_HZ= 0.1519829846011223E-15
_JPCAL=  4.184000000000000    
_PLANCK= 0.6626075540000000E-33
_TOA2006= 0.5291772490000000    
_TOA= 0.5291772090000000    
_TOANG2006= 0.5291772490000000    
_TOANG= 0.5291772090000000    
_TORAD= 0.1745329251994330E-01
_TOCM=  219474.6306700000    
_TODEBYE=  2.541580000000000    
_TOEV2006=  27.21139610000000    
_TOE= 0.4803242000000000E-09
_TOEV=  27.21138390000000    
_TOHERTZ2006=  6579683899900000.    
_TOHERTZ=  6579683920700000.    
_TOHZ2006=  6579683899900000.    
_TOHZ=  6579683920700000.    
_TOK2006=  315773.3000000000    
_TOK=  315774.7000000000    
_TOKCAL=  627.5096000000000    
_TOKELVIN2006=  315773.3000000000    
_TOKELVIN=  315774.7000000000    
_TOKJ=  2625.500000000000    
_TOKJOULE=  2625.500000000000    
_TOKG= 0.1660565586000000E-26
_ANG2006=  1.889725988578923    
_ANG=  1.889726131421507    
_ANGSTROM2006=  1.889725988578923    
_ANGSTROM=  1.889726131421507    
_RPAREF=  0.000000000000000    
_RPADISS=  0.000000000000000    
_IGNORE_UNDEF=  2.000000000000000    
_STRICTCHECK=  0.000000000000000    
_SEW_ONEEL=  0.000000000000000    
_CPPDONE=FALSE
_DKROLL_DONE=  0.000000000000000    
_FOCKDONE=TRUE
_GRADONE=FALSE
_HESSDONE=FALSE
_INTDONE=TRUE
_SCFDONE=TRUE
_MODUL_BLOCK=FALSE
_MODUL_CUDA=FALSE
_MODUL_SLATER=FALSE
_MODUL_MRCC=FALSE
_MODUL_NBO6=FALSE
_MODUL_NECI=TRUE
_MODUL_AIMS=TRUE
_MRCC_EXEC=
_FITC_AO_SAVED=FALSE
_FITC_MO_SAVED=FALSE
_SHARED_FS=TRUE
_LSTYP=SEWARD
_INTYP=INTS
_GEOMTYP=ZMAT
_GRADTYP=ALASKA
_DIRECT=FALSE
_DKHO= -1.000000000000000    
_SYNCM=  0.000000000000000    
_BASIS=USERDEF
_ZORIENT=  1.000000000000000    
_NELEC=  46.00000000000000    
!SPIN=  0.000000000000000    
_QSDSTEP=  0.000000000000000    
_QSDIRC=  0.000000000000000    
_PROGRAM=HF-SCF
_CPUSTEP=  5.420000000000000    
_SYSSTEP= 0.3600000000000000    
_WALLSTEP=  3.580000000000000    
!DFSCF=  0.000000000000000    
!SCSGRD=  0.000000000000000    
_BASINP=  610.0000000000000    
_CPUTOT=  8.300000000000001    
_CPUSORT= 0.4700000000000002    
_SYSSORT= 0.2800000000000000    
_WALLSORT= 0.8000000007450581    
_DFTEXFAC=  1.000000000000000    
_DMX=  0.000000000000000    
_DMY=  0.000000000000000    
_DMZ=  0.000000000000000    
_DMX_SCF=  0.000000000000000    
_DMY_SCF=  0.000000000000000    
_DMZ_SCF=  0.000000000000000    
_EHOMO=-0.2436372778085721    
_ELUMO=-0.1118322523278668    
_ENERGY= -264.3501713490192    
_ENUC=  209.7190764685884    
_EPS1= -15.69243497701307    
_EPS2= -15.69244444845110    
_GRADEXFAC=  9999.000000000000    
_GRADMETHOD=  1.000000000000000    
_NMRMETHOD=  0.000000000000000    
!GRID_FREEZE= -1.000000000000000    
_ITERATIONS=  24.00000000000000    
_LASTNELEC=  46.00000000000000    
_LASTSPIN=  0.000000000000000    
_LASTSYM=  1.000000000000000    
_MPP_PROG=  0.000000000000000    
_NPROC_MPP=  1.000000000000000    
_NPROC_MPPX=  1.000000000000000    
_NPROC_SMP=  16.00000000000000    
_NUMSTEP=  0.000000000000000    
_ORBITAL=  2100.200000000000    
_PI=  3.141592653589793    
_SEIG_MIN= 0.3661020316634271E-02
_SEWPROP=TRUE
_STATUS=  1.000000000000000    
_SYSTOT= 0.7200000000000000    
_VERSION=  2012001.000000000    
_WALLTOT=  8.210000000000001    
_DATE=24-Jan-19
_LASTORB=RHF
_MACHINE=Linux-4.9.0-8-amd64/nympha18.meta.zcu.cz(x86_64) (16 PROC) 64 bit serial version
_OUTPUT=/auto/brno2/home/masiz4am/git/UKRmol-in/tests/suite/Ci_target_HF2/molpro.xml
_PGROUP=Ci
_TIME=16:16:59
_LIBMOL=/afs/ics.muni.cz/software/molpro-2012.1/molprop_2012_1_Linux_x86_64_i8/lib/
!VIBCNT=  0.000000000000000    
!RGHFCNT=  0.000000000000000    
!SURFREC=  0.000000000000000    
!POLYREC=  0.000000000000000    
!DIPREC=  0.000000000000000    
!VSCFREC=  0.000000000000000    
!VCIREC=  0.000000000000000    
!PVCIREC=  0.000000000000000    
!VMP2REC=  0.000000000000000    
!VMCSCFREC=  0.000000000000000    
!VMRCIREC=  0.000000000000000    
!VIBINFO=  0.000000000000000    
!GAREC=  0.000000000000000    
!SCFORB=  21002.00000000000    
!NEWMOL= -1.000000000000000    
!NEWSYM= -1.000000000000000    
_SLFILES=slscratch
_NGSSTO=  9.000000000000000    
_SIN=SIN
_COS=COS
_TAN=TAN
_ACOS=ACOS
_ASIN=ASIN
_ATAN=ATAN
_COSH=COSH
_SINH=SINH
_TANH=TANH
_ABS=ABS
_MOD=MOD
_ERF=ERF
_REFC=REFC
_ERFC=ERFC
_HYPOT=HYPOT
_J0=J0
_J1=J1
_JN=JN
_GAMMA=GAMMA
_LGAMMA=LGAMMA
_Y0=Y0
_Y1=Y1
_YN=YN
_EXP=EXP
_LOG=LOG
_LOG10=LOG10
_SQRT=SQRT
_INT=INT
_NINT=NINT
_MAX=MAX
_MIN=MIN
_COSMO=  0.000000000000000    
_COSMOIT=  0.000000000000000    
_COSMOES=  0.000000000000000    
_COSMOEDS=  0.000000000000000    
_COSMOEC=  0.000000000000000    
_COSMOEDCORR=  0.000000000000000    
_FEPSI=  1.000000000000000    
_SL_IsMM=  0.000000000000000    
_SL_NSYM=  2.000000000000000    
_SL_System_BitSw=  0.000000000000000    
_SL_Unique_atoms=  0.000000000000000    
_SL_GRAD=  0.000000000000000    
_SL_MAXUPD_Hess=  5.000000000000000    
_SL_N_PRINT_COD=  5.000000000000000    
_SL_PRINT_CODES=  0.000000000000000    
_SL_BasType=  0.000000000000000    
_SL_Energy_Pred=  0.000000000000000    
_SL_New_Coords=  0.000000000000000    
_SL_Total_Nuclea=  0.000000000000000    
_SL_Highest_Mltp=  0.000000000000000    
_SL_Ref_Geom=  0.000000000000000    
_SL_Symmetry_ope=  1.000000000000000    
_SL_agrad=  0.000000000000000    
_SL_GrdMax=  0.000000000000000    
_SL_GrdNorm=  0.000000000000000    
_SL_GrdRMS=  0.000000000000000    
!LATTICE= -1.000000000000000    
!NEWLATTICE=  0.000000000000000    
!LATGRAD_VAR=FALSE
!SEW_LATTICE=  1.000000000000000    
!LOCAL=  0.000000000000000    
!SAVEDOM= -1.000000000000000    
!RESTDOM= -1.000000000000000    
!SAVEDOM_HF= -1.000000000000000    
!RESTDOM_HF= -1.000000000000000    
!HESSREC=  0.000000000000000    
!FREQREC=  0.000000000000000    
!NMODREC=  0.000000000000000    
!GTASKS=  0.000000000000000    
!HTASKS=  0.000000000000000    
!THRCHG= 0.1000000000000000    
!DEBUG= -1.000000000000000    
!CFIT_CPHF=  0.000000000000000    
!RDOMAUX_CPHF=  3.000000000000000    
!THRAO_CPHF= 0.1000000000000000E-09
!THRMO_CPHF= 0.1000000000000000E-08
!THROV_CPHF= 0.1000000000000000E-11
!THRSW_CPHF= 0.1000000000000000E-09
!THRPROD_CPHF= 0.1000000000000000E-08
!THRAOPR_CPHF= 0.1000000000000000E-11
!CFIT_SCFGRD=  0.000000000000000    
!RDOMAUX_SCFGRD=  5.000000000000000    
!THRAO_SCFGRD= 0.1000000000000000E-09
!THRMO_SCFGRD= 0.1000000000000000E-08
!THROV_SCFGRD= 0.1000000000000000E-11
!THRSW_SCFGRD= 0.1000000000000000E-09
!THRPROD_SCFGRD= 0.1000000000000000E-08
!THRAOPR_SCFGRD= 0.1000000000000000E-11
!LOCFIT_SCF=  0.000000000000000    
!LOCFIT_MP2= -1.000000000000000    
_RIDOM=  0.000000000000000    
!CC2_METHOD=  0.000000000000000    
_BASIS2006=FALSE
_SVDDEL= -1.000000000000000    
_SVDDELA= -1.000000000000000    
_SVDDELP= -1.000000000000000    
_SVDDELF= -1.000000000000000    
_SVDDELS= -1.000000000000000    
_SVDDEL_ABS= -1.000000000000000    
_SVDDELA_ABS= -1.000000000000000    
_SVDDELP_ABS= -1.000000000000000    
_SVDDELF_ABS= -1.000000000000000    
_SVDDELS_ABS= -1.000000000000000    
_MAXBASIS=  0.000000000000000    
!OPT_CONICAL=  0.000000000000000    
!CLEARSP_JGRID=  0.000000000000000    
_4EXT_NDISKS=  1.000000000000000    
!ZMP=  0.000000000000000    
_MAXIT_ZMP=  500.0000000000000    
_MAXDIS_ZMP=  100.0000000000000    
_ACCU_ZMP=  14.00000000000000    
_SHIFTA_ZMP= -100.0000000000000    
!EMBEDFLAG=  1.000000000000000    
!EMBED=FALSE
!EMBED_F12=FALSE
!EMBEDNUC=  0.000000000000000    
_EMBEDENERGY=  0.000000000000000    
_KSPACETIME=  0.000000000000000    
_RSPACETIME=  0.000000000000000    
!EMBED_DFC=FALSE
!NUM_VOIDS=  0.000000000000000    
_IBODY=  0.000000000000000    
_EMBE_TOTAL=  0.000000000000000    
_EMBE_HF=  0.000000000000000    
_EMBE_CORR=  0.000000000000000    
!EDFT=  0.000000000000000    
_IFASTLATGRAD=  0.000000000000000    
_SINDEX=  0.000000000000000    
GX1= -2.936634186000000    
GY1= -1.829065784000000    
GZ1=  2.251986461000000    
GX2= 0.7694964230000000    
GY2= -3.551551023000000    
GZ2=-0.8326132710000000    
GX3= 0.1065805460000000    
GY3= -1.239849221000000    
GZ3= 0.7377490260000000    
GX4= 0.7284893690000001    
GY4= -5.233407153000000    
GZ4= 0.3520559520000000    
GX5=-0.5822245770000000    
GY5= -3.802695607000000    
GZ5= -2.368771527000000    
GX6=  2.654309124000000    
GY6= -3.351618013000000    
GZ6= -1.631211473000000    
GX7=  1.429388738000000    
GY7= -1.002688610000000    
GZ7=  2.291859679000000    
GX8=  2.936634186000000    
GY8=  1.829065784000000    
GZ8= -2.251986461000000    
GX9=-0.7694964230000000    
GY9=  3.551551023000000    
GZ9= 0.8326132710000000    
GX10=-0.1065805460000000    
GY10=  1.239849221000000    
GZ10=-0.7377490260000000    
GX11=-0.7284893690000001    
GY11=  5.233407153000000    
GZ11=-0.3520559520000000    
GX12= 0.5822245770000000    
GY12=  3.802695607000000    
GZ12=  2.368771527000000    
GX13= -2.654309124000000    
GY13=  3.351618013000000    
GZ13=  1.631211473000000    
GX14= -1.429388738000000    
GY14=  1.002688610000000    
GZ14= -2.291859679000000    
[Atoms] Angs
N     1    7        -1.5539998824       -0.9678999267        1.1916999101
C     2    6         0.4071999695       -1.8793998580       -0.4405999669
C     3    6         0.0563999959       -0.6560999503        0.3903999705
H     4    1         0.3854999711       -2.7693997908        0.1862999861
H     5    1        -0.3080999767       -2.0122998480       -1.2534999054
H     6    1         1.4045998941       -1.7735998658       -0.8631999346
H     7    1         0.7563999430       -0.5305999601        1.2127999084
N     8    7         1.5539998824        0.9678999267       -1.1916999101
C     9    6        -0.4071999695        1.8793998580        0.4405999669
C    10    6        -0.0563999959        0.6560999503       -0.3903999705
H    11    1        -0.3854999711        2.7693997908       -0.1862999861
H    12    1         0.3080999767        2.0122998480        1.2534999054
H    13    1        -1.4045998941        1.7735998658        0.8631999346
H    14    1        -0.7563999430        0.5305999601       -1.2127999084
[GTO]
  1 0
 s    8  1.00
  0.9046000000D+04  0.6996174134D-03
  0.1357000000D+04  0.5386054630D-02
  0.3093000000D+03  0.2739102119D-01
  0.8773000000D+02  0.1031505920D+00
  0.2856000000D+02  0.2785706633D+00
  0.1021000000D+02  0.4482948495D+00
  0.3838000000D+01  0.2780859284D+00
  0.7466000000D+00  0.1543156123D-01
 s    8  1.00
  0.9046000000D+04 -0.3049900960D-03
  0.1357000000D+04 -0.2408026379D-02
  0.3093000000D+03 -0.1194444873D-01
  0.8773000000D+02 -0.4892599291D-01
  0.2856000000D+02 -0.1344727247D+00
  0.1021000000D+02 -0.3151125777D+00
  0.3838000000D+01 -0.2428578325D+00
  0.7466000000D+00  0.1094382207D+01
 s    1  1.00
  0.2248000000D+00  0.1000000000D+01
 p    3  1.00
  0.1355000000D+02  0.5890567677D-01
  0.2917000000D+01  0.3204611067D+00
  0.7973000000D+00  0.7530420618D+00
 p    1  1.00
  0.2185000000D+00  0.1000000000D+01
 d    1  1.00
  0.8170000000D+00  0.1000000000D+01
  
  8 0
 s    8  1.00
  0.9046000000D+04  0.6996174134D-03
  0.1357000000D+04  0.5386054630D-02
  0.3093000000D+03  0.2739102119D-01
  0.8773000000D+02  0.1031505920D+00
  0.2856000000D+02  0.2785706633D+00
  0.1021000000D+02  0.4482948495D+00
  0.3838000000D+01  0.2780859284D+00
  0.7466000000D+00  0.1543156123D-01
 s    8  1.00
  0.9046000000D+04 -0.3049900960D-03
  0.1357000000D+04 -0.2408026379D-02
  0.3093000000D+03 -0.1194444873D-01
  0.8773000000D+02 -0.4892599291D-01
  0.2856000000D+02 -0.1344727247D+00
  0.1021000000D+02 -0.3151125777D+00
  0.3838000000D+01 -0.2428578325D+00
  0.7466000000D+00  0.1094382207D+01
 s    1  1.00
  0.2248000000D+00  0.1000000000D+01
 p    3  1.00
  0.1355000000D+02  0.5890567677D-01
  0.2917000000D+01  0.3204611067D+00
  0.7973000000D+00  0.7530420618D+00
 p    1  1.00
  0.2185000000D+00  0.1000000000D+01
 d    1  1.00
  0.8170000000D+00  0.1000000000D+01
  
  2 0
 s    8  1.00
  0.6665000000D+04  0.6915839628D-03
  0.1000000000D+04  0.5325796153D-02
  0.2280000000D+03  0.2706072104D-01
  0.6471000000D+02  0.1016568461D+00
  0.2106000000D+02  0.2745748236D+00
  0.7495000000D+01  0.4482943189D+00
  0.2797000000D+01  0.2849026107D+00
  0.5215000000D+00  0.1519485921D-01
 s    8  1.00
  0.6665000000D+04 -0.2932696527D-03
  0.1000000000D+04 -0.2318035474D-02
  0.2280000000D+03 -0.1149978604D-01
  0.6471000000D+02 -0.4682672701D-01
  0.2106000000D+02 -0.1284661688D+00
  0.7495000000D+01 -0.3012662725D+00
  0.2797000000D+01 -0.2556307023D+00
  0.5215000000D+00  0.1093793361D+01
 s    1  1.00
  0.1596000000D+00  0.1000000000D+01
 p    3  1.00
  0.9439000000D+01  0.5697925159D-01
  0.2002000000D+01  0.3132072115D+00
  0.5456000000D+00  0.7603767417D+00
 p    1  1.00
  0.1517000000D+00  0.1000000000D+01
 d    1  1.00
  0.5500000000D+00  0.1000000000D+01
  
  9 0
 s    8  1.00
  0.6665000000D+04  0.6915839628D-03
  0.1000000000D+04  0.5325796153D-02
  0.2280000000D+03  0.2706072104D-01
  0.6471000000D+02  0.1016568461D+00
  0.2106000000D+02  0.2745748236D+00
  0.7495000000D+01  0.4482943189D+00
  0.2797000000D+01  0.2849026107D+00
  0.5215000000D+00  0.1519485921D-01
 s    8  1.00
  0.6665000000D+04 -0.2932696527D-03
  0.1000000000D+04 -0.2318035474D-02
  0.2280000000D+03 -0.1149978604D-01
  0.6471000000D+02 -0.4682672701D-01
  0.2106000000D+02 -0.1284661688D+00
  0.7495000000D+01 -0.3012662725D+00
  0.2797000000D+01 -0.2556307023D+00
  0.5215000000D+00  0.1093793361D+01
 s    1  1.00
  0.1596000000D+00  0.1000000000D+01
 p    3  1.00
  0.9439000000D+01  0.5697925159D-01
  0.2002000000D+01  0.3132072115D+00
  0.5456000000D+00  0.7603767417D+00
 p    1  1.00
  0.1517000000D+00  0.1000000000D+01
 d    1  1.00
  0.5500000000D+00  0.1000000000D+01
  
  3 0
 s    8  1.00
  0.6665000000D+04  0.6915839628D-03
  0.1000000000D+04  0.5325796153D-02
  0.2280000000D+03  0.2706072104D-01
  0.6471000000D+02  0.1016568461D+00
  0.2106000000D+02  0.2745748236D+00
  0.7495000000D+01  0.4482943189D+00
  0.2797000000D+01  0.2849026107D+00
  0.5215000000D+00  0.1519485921D-01
 s    8  1.00
  0.6665000000D+04 -0.2932696527D-03
  0.1000000000D+04 -0.2318035474D-02
  0.2280000000D+03 -0.1149978604D-01
  0.6471000000D+02 -0.4682672701D-01
  0.2106000000D+02 -0.1284661688D+00
  0.7495000000D+01 -0.3012662725D+00
  0.2797000000D+01 -0.2556307023D+00
  0.5215000000D+00  0.1093793361D+01
 s    1  1.00
  0.1596000000D+00  0.1000000000D+01
 p    3  1.00
  0.9439000000D+01  0.5697925159D-01
  0.2002000000D+01  0.3132072115D+00
  0.5456000000D+00  0.7603767417D+00
 p    1  1.00
  0.1517000000D+00  0.1000000000D+01
 d    1  1.00
  0.5500000000D+00  0.1000000000D+01
  
 10 0
 s    8  1.00
  0.6665000000D+04  0.6915839628D-03
  0.1000000000D+04  0.5325796153D-02
  0.2280000000D+03  0.2706072104D-01
  0.6471000000D+02  0.1016568461D+00
  0.2106000000D+02  0.2745748236D+00
  0.7495000000D+01  0.4482943189D+00
  0.2797000000D+01  0.2849026107D+00
  0.5215000000D+00  0.1519485921D-01
 s    8  1.00
  0.6665000000D+04 -0.2932696527D-03
  0.1000000000D+04 -0.2318035474D-02
  0.2280000000D+03 -0.1149978604D-01
  0.6471000000D+02 -0.4682672701D-01
  0.2106000000D+02 -0.1284661688D+00
  0.7495000000D+01 -0.3012662725D+00
  0.2797000000D+01 -0.2556307023D+00
  0.5215000000D+00  0.1093793361D+01
 s    1  1.00
  0.1596000000D+00  0.1000000000D+01
 p    3  1.00
  0.9439000000D+01  0.5697925159D-01
  0.2002000000D+01  0.3132072115D+00
  0.5456000000D+00  0.7603767417D+00
 p    1  1.00
  0.1517000000D+00  0.1000000000D+01
 d    1  1.00
  0.5500000000D+00  0.1000000000D+01
  
  4 0
 s    3  1.00
  0.1301000000D+02  0.3349872639D-01
  0.1962000000D+01  0.2348008012D+00
  0.4446000000D+00  0.8136829579D+00
 s    1  1.00
  0.1220000000D+00  0.1000000000D+01
 p    1  1.00
  0.7270000000D+00  0.1000000000D+01
  
 11 0
 s    3  1.00
  0.1301000000D+02  0.3349872639D-01
  0.1962000000D+01  0.2348008012D+00
  0.4446000000D+00  0.8136829579D+00
 s    1  1.00
  0.1220000000D+00  0.1000000000D+01
 p    1  1.00
  0.7270000000D+00  0.1000000000D+01
  
  5 0
 s    3  1.00
  0.1301000000D+02  0.3349872639D-01
  0.1962000000D+01  0.2348008012D+00
  0.4446000000D+00  0.8136829579D+00
 s    1  1.00
  0.1220000000D+00  0.1000000000D+01
 p    1  1.00
  0.7270000000D+00  0.1000000000D+01
  
 12 0
 s    3  1.00
  0.1301000000D+02  0.3349872639D-01
  0.1962000000D+01  0.2348008012D+00
  0.4446000000D+00  0.8136829579D+00
 s    1  1.00
  0.1220000000D+00  0.1000000000D+01
 p    1  1.00
  0.7270000000D+00  0.1000000000D+01
  
  6 0
 s    3  1.00
  0.1301000000D+02  0.3349872639D-01
  0.1962000000D+01  0.2348008012D+00
  0.4446000000D+00  0.8136829579D+00
 s    1  1.00
  0.1220000000D+00  0.1000000000D+01
 p    1  1.00
  0.7270000000D+00  0.1000000000D+01
  
 13 0
 s    3  1.00
  0.1301000000D+02  0.3349872639D-01
  0.1962000000D+01  0.2348008012D+00
  0.4446000000D+00  0.8136829579D+00
 s    1  1.00
  0.1220000000D+00  0.1000000000D+01
 p    1  1.00
  0.7270000000D+00  0.1000000000D+01
  
  7 0
 s    3  1.00
  0.1301000000D+02  0.3349872639D-01
  0.1962000000D+01  0.2348008012D+00
  0.4446000000D+00  0.8136829579D+00
 s    1  1.00
  0.1220000000D+00  0.1000000000D+01
 p    1  1.00
  0.7270000000D+00  0.1000000000D+01
  
 14 0
 s    3  1.00
  0.1301000000D+02  0.3349872639D-01
  0.1962000000D+01  0.2348008012D+00
  0.4446000000D+00  0.8136829579D+00
 s    1  1.00
  0.1220000000D+00  0.1000000000D+01
 p    1  1.00
  0.7270000000D+00  0.1000000000D+01
 
 
[MO]
 Sym=      1.2
 Ene=     -15.6924
 Spin= Alpha
 Occup=    2.000000
1 0.70767740779415
2 0.000126412339991
3 -0.003496869794979
4 0.000579127605189
5 0.000155225955660
6 -0.000335989984938
7 -0.001113629082657
8 -0.000322240661564
9 0.000610684157194
10 0.000020807119198
11 0.000029723523280
12 -0.000050530642478
13 -0.000331282036622
14 0.000097338284425
15 0.000144409856418
16 -0.70767740779415
17 -0.000126412339991
18 0.003496869794979
19 0.000579127605189
20 0.000155225955660
21 -0.000335989984938
22 -0.001113629082657
23 -0.000322240661564
24 0.000610684157194
25 -0.000020807119198
26 -0.000029723523280
27 0.000050530642478
28 0.000331282036622
29 -0.000097338284425
30 -0.000144409856418
31 -0.000093756937164
32 -0.000168826813764
33 0.000624776904090
34 0.000054560090786
35 -0.000006795315954
36 -0.000020458416876
37 -0.000014027906540
38 0.000272114060769
39 0.000103039257285
40 -0.000049505878029
41 0.000076953698489
42 -0.000027447820460
43 0.000052082591751
44 0.000017106957670
45 -0.000025348187172
46 0.000093756937164
47 0.000168826813764
48 -0.000624776904090
49 0.000054560090786
50 -0.000006795315954
51 -0.000020458416876
52 -0.000014027906540
53 0.000272114060769
54 0.000103039257285
55 0.000049505878029
56 -0.000076953698489
57 0.000027447820460
58 -0.000052082591751
59 -0.000017106957670
60 0.000025348187172
61 -0.000099567412430
62 -0.000147846836261
63 0.000828104769345
64 -0.000028291947351
65 0.000013561845561
66 0.000005392422285
67 -0.001125754185219
68 -0.000071897655886
69 0.000746864956324
70 0.000081772930059
71 -0.000090405947518
72 0.000008633017459
73 0.000075665290491
74 -0.000100372766637
75 -0.000025618126125
76 0.000099567412430
77 0.000147846836261
78 -0.000828104769345
79 -0.000028291947351
80 0.000013561845561
81 0.000005392422285
82 -0.001125754185219
83 -0.000071897655886
84 0.000746864956324
85 -0.000081772930059
86 0.000090405947518
87 -0.000008633017459
88 -0.000075665290491
89 0.000100372766637
90 0.000025618126125
91 -0.000141208393998
92 0.000036683272322
93 0.000034917185985
94 -0.000054507696354
95 -0.000012483132042
96 0.000141208393998
97 -0.000036683272322
98 0.000034917185985
99 -0.000054507696354
100 -0.000012483132042
101 -0.000095910613673
102 0.000066583736631
103 0.000040005261657
104 -0.000010201041537
105 -0.000027517342709
106 0.000095910613673
107 -0.000066583736631
108 0.000040005261657
109 -0.000010201041537
110 -0.000027517342709
111 0.000069127941626
112 -0.000118871149336
113 0.000001513595716
114 -0.000006178123699
115 0.000019754704474
116 -0.000069127941626
117 0.000118871149336
118 0.000001513595716
119 -0.000006178123699
120 0.000019754704474
121 -0.000085399985069
122 0.000059787082991
123 0.000096934273518
124 0.000032139098303
125 -0.000104698910002
126 0.000085399985069
127 -0.000059787082991
128 0.000096934273518
129 0.000032139098303
130 -0.000104698910002
 Sym=      1.1
 Ene=     -15.6924
 Spin= Alpha
 Occup=    2.000000
1 0.70758018710205
2 -0.000058707367666
3 -0.003039440069373
4 0.000550955248328
5 0.000115320249212
6 -0.000296625377680
7 -0.000895959723478
8 -0.000168844992252
9 0.000436980161286
10 0.000034471686915
11 0.000027381747148
12 -0.000061853434063
13 -0.000309948607685
14 0.000073768355169
15 0.000110285605476
16 0.70758018710205
17 -0.000058707367666
18 -0.003039440069373
19 -0.000550955248328
20 -0.000115320249212
21 0.000296625377680
22 0.000895959723478
23 0.000168844992252
24 -0.000436980161286
25 0.000034471686915
26 0.000027381747148
27 -0.000061853434063
28 -0.000309948607685
29 0.000073768355169
30 0.000110285605476
31 -0.000027614230419
32 -0.000066463214750
33 -0.000192194278568
34 0.000027744984380
35 -0.000036061968753
36 -0.000044118390181
37 -0.000199741722303
38 0.000189620337445
39 0.000236406381572
40 0.000000105218804
41 -0.000003376670985
42 0.000003271452180
43 0.000012675461233
44 -0.000005224585809
45 0.000052635742350
46 -0.000027614230419
47 -0.000066463214750
48 -0.000192194278568
49 -0.000027744984380
50 0.000036061968753
51 0.000044118390181
52 0.000199741722303
53 -0.000189620337445
54 -0.000236406381572
55 0.000000105218804
56 -0.000003376670985
57 0.000003271452180
58 0.000012675461233
59 -0.000005224585809
60 0.000052635742350
61 -0.000163277482241
62 -0.000291797722669
63 0.000852257969072
64 -0.000088732061034
65 -0.000029406898273
66 0.000100219935050
67 -0.001007242232861
68 0.000015209029596
69 0.000415491507405
70 0.000096565855513
71 -0.000070344655183
72 -0.000026221200330
73 -0.000012885386280
74 -0.000066160234317
75 -0.000031407258844
76 -0.000163277482241
77 -0.000291797722669
78 0.000852257969072
79 0.000088732061034
80 0.000029406898273
81 -0.000100219935050
82 0.001007242232861
83 -0.000015209029596
84 -0.000415491507405
85 0.000096565855513
86 -0.000070344655183
87 -0.000026221200330
88 -0.000012885386280
89 -0.000066160234317
90 -0.000031407258844
91 -0.000006182355617
92 0.000062003053560
93 0.000030359321328
94 -0.000004664129628
95 -0.000057885105871
96 -0.000006182355617
97 0.000062003053560
98 -0.000030359321328
99 0.000004664129628
100 0.000057885105871
101 -0.000013417569824
102 -0.000013161937522
103 0.000038785316052
104 -0.000045503570240
105 -0.000035111381528
106 -0.000013417569824
107 -0.000013161937522
108 -0.000038785316052
109 0.000045503570240
110 0.000035111381528
111 0.000005573248999
112 0.000504624832136
113 -0.000063995163494
114 0.000021817628678
115 0.000026755722227
116 0.000005573248999
117 0.000504624832136
118 0.000063995163494
119 -0.000021817628678
120 -0.000026755722227
121 -0.000125290135810
122 0.000121876844634
123 0.000029870001802
124 -0.000025552852578
125 -0.000032968339852
126 -0.000125290135810
127 0.000121876844634
128 -0.000029870001802
129 0.000025552852578
130 0.000032968339852
 Sym=      2.1
 Ene=     -11.3233
 Spin= Alpha
 Occup=    2.000000
1 -0.000203055987611
2 -0.000306174882641
3 0.001474320720893
4 0.000092860623948
5 0.000002736115028
6 -0.000019977664458
7 0.000666480838718
8 0.000131875976823
9 -0.000511863310834
10 -0.000012206453200
11 -0.000007915063830
12 0.000020121517029
13 -0.000003096741968
14 -0.000042907614164
15 -0.000036858325085
16 -0.000203055987611
17 -0.000306174882641
18 0.001474320720893
19 -0.000092860623948
20 -0.000002736115028
21 0.000019977664458
22 -0.000666480838718
23 -0.000131875976823
24 0.000511863310834
25 -0.000012206453200
26 -0.000007915063830
27 0.000020121517029
28 -0.000003096741968
29 -0.000042907614164
30 -0.000036858325085
31 0.002322914848326
32 -0.000262281185149
33 0.002370872297840
34 0.000019598328359
35 0.000014875471333
36 0.000059189950281
37 -0.000644766545224
38 0.000950386567305
39 0.000351308244502
40 0.000031749009377
41 0.000013876846009
42 -0.000045625855386
43 0.000015971716616
44 -0.000044267533932
45 -0.000157053289685
46 0.002322914848326
47 -0.000262281185149
48 0.002370872297840
49 -0.000019598328359
50 -0.000014875471333
51 -0.000059189950281
52 0.000644766545224
53 -0.000950386567305
54 -0.000351308244502
55 0.000031749009377
56 0.000013876846009
57 -0.000045625855386
58 0.000015971716616
59 -0.000044267533932
60 -0.000157053289685
61 0.70868279730749
62 0.002978668210419
63 -0.006469967194182
64 0.000001235247270
65 0.000155740817918
66 0.000012082044853
67 0.000885394107139
68 0.001119659189501
69 0.000544609178397
70 -0.000021763921480
71 -0.000037841034642
72 0.000059604956122
73 -0.000141623989221
74 0.000404886490853
75 0.000216876408268
76 0.70868279730749
77 0.002978668210419
78 -0.006469967194182
79 -0.000001235247270
80 -0.000155740817918
81 -0.000012082044853
82 -0.000885394107139
83 -0.001119659189501
84 -0.000544609178397
85 -0.000021763921480
86 -0.000037841034642
87 0.000059604956122
88 -0.000141623989221
89 0.000404886490853
90 0.000216876408268
91 -0.000138713878071
92 0.000223622634904
93 0.000021846574152
94 0.000039742578493
95 0.000060329244155
96 -0.000138713878071
97 0.000223622634904
98 -0.000021846574152
99 -0.000039742578493
100 -0.000060329244155
101 -0.000135012132017
102 -0.000161243140018
103 0.000009204603493
104 0.000028358587082
105 0.000062119284143
106 -0.000135012132017
107 -0.000161243140018
108 -0.000009204603493
109 -0.000028358587082
110 -0.000062119284143
111 -0.000122070343501
112 0.000117352596193
113 0.000015288255070
114 -0.000014357048752
115 0.000036502951349
116 -0.000122070343501
117 0.000117352596193
118 -0.000015288255070
119 0.000014357048752
120 -0.000036502951349
121 -0.000138975235601
122 0.000837660561548
123 0.000144127306478
124 0.000097009526912
125 0.000177791166442
126 -0.000138975235601
127 0.000837660561548
128 -0.000144127306478
129 -0.000097009526912
130 -0.000177791166442
 Sym=      2.2
 Ene=     -11.3227
 Spin= Alpha
 Occup=    2.000000
1 -0.000121915842366
2 -0.000147308757628
3 0.001226724014304
4 0.000145491819575
5 0.000000392226412
6 -0.000064876700838
7 0.000563410256666
8 0.000116475513602
9 -0.000343707373111
10 0.000026220310543
11 -0.000044806808606
12 0.000018586498063
13 0.000014590012190
14 -0.000033199621851
15 0.000020992927438
16 0.000121915842366
17 0.000147308757628
18 -0.001226724014304
19 0.000145491819575
20 0.000000392226412
21 -0.000064876700838
22 0.000563410256666
23 0.000116475513602
24 -0.000343707373111
25 -0.000026220310543
26 0.000044806808606
27 -0.000018586498063
28 -0.000014590012190
29 0.000033199621851
30 -0.000020992927438
31 0.002627587846220
32 0.000039465668527
33 0.001709620742645
34 -0.000006895324021
35 0.000150210425944
36 0.000038755937820
37 -0.000330327533853
38 0.000539476253053
39 0.000538672223544
40 0.000110863136398
41 -0.000063929382285
42 -0.000046933754112
43 0.000064645546313
44 0.000002813988327
45 -0.000034353478976
46 -0.002627587846220
47 -0.000039465668527
48 -0.001709620742645
49 -0.000006895324021
50 0.000150210425944
51 0.000038755937820
52 -0.000330327533853
53 0.000539476253053
54 0.000538672223544
55 -0.000110863136398
56 0.000063929382285
57 0.000046933754112
58 -0.000064645546313
59 -0.000002813988327
60 0.000034353478976
61 0.70890166021030
62 0.003205286906772
63 -0.010511594710361
64 0.000129538223491
65 0.000016314383054
66 0.000081679165984
67 0.000458444609577
68 -0.001219869181403
69 0.001267938141427
70 -0.000213912552998
71 0.000056652102945
72 0.000157260450052
73 -0.000098060052286
74 0.000409740129265
75 0.000051882746877
76 -0.70890166021030
77 -0.003205286906772
78 0.010511594710361
79 0.000129538223491
80 0.000016314383054
81 0.000081679165984
82 0.000458444609577
83 -0.001219869181403
84 0.001267938141427
85 0.000213912552998
86 -0.000056652102945
87 -0.000157260450052
88 0.000098060052286
89 -0.000409740129265
90 -0.000051882746877
91 -0.000093403556041
92 -0.000217568622428
93 0.000018119565705
94 0.000014869358851
95 0.000005308083894
96 0.000093403556041
97 0.000217568622428
98 0.000018119565705
99 0.000014869358851
100 0.000005308083894
101 -0.000056080275062
102 0.000197649010629
103 -0.000004757320725
104 0.000113949803886
105 0.000041147382508
106 0.000056080275062
107 -0.000197649010629
108 -0.000004757320725
109 0.000113949803886
110 0.000041147382508
111 -0.000069610140274
112 0.000162337704317
113 -0.000004525439157
114 0.000061735458679
115 0.000008280252552
116 0.000069610140274
117 -0.000162337704317
118 -0.000004525439157
119 0.000061735458679
120 0.000008280252552
121 0.000141406859139
122 0.000747072705770
123 0.000199767563664
124 -0.000012165002760
125 0.000264750619174
126 -0.000141406859139
127 -0.000747072705770
128 0.000199767563664
129 -0.000012165002760
130 0.000264750619174
 Sym=      3.1
 Ene=     -11.2387
 Spin= Alpha
 Occup=    2.000000
1 -0.000030844149385
2 -0.000072940267867
3 0.000010711279673
4 -0.000047667127247
5 0.000006907836592
6 0.000046581425626
7 0.000044512120796
8 -0.000109439282191
9 -0.000124228066902
10 -0.000017725228868
11 0.000005490130532
12 0.000012235098335
13 -0.000033940298680
14 -0.000033286266480
15 0.000032246185717
16 -0.000030844149385
17 -0.000072940267867