[Molden Format]
[Molpro variables]
_NUMVAR=  778.0000000000000    
_AVOGAD= 0.6022136736000000E+24
_BOLTZ= 0.1380658000000000E-22
_CLIGHT=  29979245800.00000    
_EV2006= 0.3674930886769165E-01
_EV= 0.3674932534394180E-01
_ENULL= 0.8854187817000000E-11
_KJOULE= 0.3808798324128737E-03
_KJOULE/MOL= 0.3808798324128737E-03
_CM= 0.4556335267302901E-05
_CM-1= 0.4556335267302901E-05
_DEB2SI= 0.3335641000000000E-29
_AMU2AU=  1822.888390000000    
_KCAL= 0.1593601117815568E-02
_KCAL/MOL= 0.1593601117815568E-02
_KELVIN2006= 0.3166828861084835E-05
_KELVIN= 0.3166814820820034E-05
_JOULE= 0.4359748200000000E-17
_HERTZ2006= 0.1519829850815779E-15
_HERTZ= 0.1519829846011223E-15
_HZ2006= 0.1519829850815779E-15
_HZ= 0.1519829846011223E-15
_JPCAL=  4.184000000000000    
_PLANCK= 0.6626075540000000E-33
_TOA2006= 0.5291772490000000    
_TOA= 0.5291772090000000    
_TOANG2006= 0.5291772490000000    
_TOANG= 0.5291772090000000    
_TORAD= 0.1745329251994330E-01
_TOCM=  219474.6306700000    
_TODEBYE=  2.541580000000000    
_TOEV2006=  27.21139610000000    
_TOE= 0.4803242000000000E-09
_TOEV=  27.21138390000000    
_TOHERTZ2006=  6579683899900000.    
_TOHERTZ=  6579683920700000.    
_TOHZ2006=  6579683899900000.    
_TOHZ=  6579683920700000.    
_TOK2006=  315773.3000000000    
_TOK=  315774.7000000000    
_TOKCAL=  627.5096000000000    
_TOKELVIN2006=  315773.3000000000    
_TOKELVIN=  315774.7000000000    
_TOKJ=  2625.500000000000    
_TOKJOULE=  2625.500000000000    
_TOKG= 0.1660565586000000E-26
_ANG2006=  1.889725988578923    
_ANG=  1.889726131421507    
_ANGSTROM2006=  1.889725988578923    
_ANGSTROM=  1.889726131421507    
_RPAREF=  0.000000000000000    
_RPADISS=  0.000000000000000    
_IGNORE_UNDEF=  2.000000000000000    
_STRICTCHECK=  0.000000000000000    
_SEW_ONEEL=  0.000000000000000    
_CPPDONE=FALSE
_DKROLL_DONE=  0.000000000000000    
_FOCKDONE=TRUE
_GRADONE=FALSE
_HESSDONE=FALSE
_INTDONE=TRUE
_SCFDONE=TRUE
_MODUL_BLOCK=FALSE
_MODUL_CUDA=FALSE
_MODUL_SLATER=FALSE
_MODUL_MRCC=FALSE
_MODUL_NBO6=FALSE
_MODUL_NECI=TRUE
_MODUL_AIMS=TRUE
_MRCC_EXEC=
_FITC_AO_SAVED=FALSE
_FITC_MO_SAVED=FALSE
_SHARED_FS=TRUE
_LSTYP=SEWARD
_INTYP=INTS
_GEOMTYP=ZMAT
_GRADTYP=ALASKA
_DIRECT=FALSE
_DKHO= -1.000000000000000    
_SYNCM=  0.000000000000000    
_BASIS=AUG-CC-PVDZ
_ZUNIT=BOHR
_ZORIENT=  1.000000000000000    
_NELEC=  1.000000000000000    
!SPIN=  1.000000000000000    
_QSDSTEP=  0.000000000000000    
_QSDIRC=  0.000000000000000    
_PROGRAM=HF-SCF
_CPUSTEP= 0.1000000000000001E-01
_SYSSTEP= 0.1000000000000001E-01
_WALLSTEP= 0.3000000000000000E-01
!DFSCF=  0.000000000000000    
!SCSGRD=  0.000000000000000    
_BASINP=  610.0000000000000    
_CPUTOT= 0.1300000000000000    
_CPUSORT=  0.000000000000000    
_SYSSORT= 0.6000000000000000E-01
_WALLSORT= 0.7999999821186066E-01
_DFTEXFAC=  1.000000000000000    
_DMX=  0.000000000000000    
_DMY=  0.000000000000000    
_DMZ=  0.000000000000000    
_DMX_SCF=  0.000000000000000    
_DMY_SCF=  0.000000000000000    
_DMZ_SCF=  0.000000000000000    
_EHOMO= -1.279749292103008    
_ELUMO=-0.2027919013508107    
_ENERGY=-0.5654635778172948    
_ENUC= 0.7142857142857143    
_EPS1= -1.279749292103008    
_EPS2=-0.7500605342753631E-01
_EPS3=-0.7500605342753631E-01
_EPS5=-0.2027919013508107    
_EPS6= 0.1557962266257905    
_EPS7= 0.1557962266257904    
_GRADEXFAC=  9999.000000000000    
_GRADMETHOD=  2.000000000000000    
_NMRMETHOD=  0.000000000000000    
!GRID_FREEZE= -1.000000000000000    
_ITERATIONS=  7.000000000000000    
_LASTNELEC=  1.000000000000000    
_LASTSPIN=  1.000000000000000    
_LASTSYM=  1.000000000000000    
_MPP_PROG=  0.000000000000000    
_NPROC_MPP=  1.000000000000000    
_NPROC_MPPX=  1.000000000000000    
_NPROC_SMP=  1.000000000000000    
_NUMSTEP=  0.000000000000000    
_ORBITAL=  2100.200000000000    
_PI=  3.141592653589793    
_SEIG_MIN= 0.2834145739795009E-03
_SEWPROP=TRUE
_STATUS=  1.000000000000000    
_SYSTOT= 0.1000000000000000    
_VERSION=  2012001.000000000    
_WALLTOT=  1.220000000000000    
_DATE=25-Jan-19
_LASTORB=RHF
_MACHINE=Linux-4.9.0-8-amd64/skirit.ics.muni.cz(x86_64) 64 bit serial version
_OUTPUT=/auto/brno2/home/masiz4am/git/UKRmol-in/tests/suite/D2h_photoionization_CC/inputs/target.molpro.xml
_PGROUP=D2h
_TIME=15:05:01
_LIBMOL=/afs/ics.muni.cz/software/molpro-2012.1/molprop_2012_1_Linux_x86_64_i8/lib/
!VIBCNT=  0.000000000000000    
!RGHFCNT=  0.000000000000000    
!SURFREC=  0.000000000000000    
!POLYREC=  0.000000000000000    
!DIPREC=  0.000000000000000    
!VSCFREC=  0.000000000000000    
!VCIREC=  0.000000000000000    
!PVCIREC=  0.000000000000000    
!VMP2REC=  0.000000000000000    
!VMCSCFREC=  0.000000000000000    
!VMRCIREC=  0.000000000000000    
!VIBINFO=  0.000000000000000    
!GAREC=  0.000000000000000    
!SCFORB=  21002.00000000000    
!NEWMOL= -1.000000000000000    
!NEWSYM= -1.000000000000000    
_SLFILES=slscratch
_NGSSTO=  9.000000000000000    
_SIN=SIN
_COS=COS
_TAN=TAN
_ACOS=ACOS
_ASIN=ASIN
_ATAN=ATAN
_COSH=COSH
_SINH=SINH
_TANH=TANH
_ABS=ABS
_MOD=MOD
_ERF=ERF
_REFC=REFC
_ERFC=ERFC
_HYPOT=HYPOT
_J0=J0
_J1=J1
_JN=JN
_GAMMA=GAMMA
_LGAMMA=LGAMMA
_Y0=Y0
_Y1=Y1
_YN=YN
_EXP=EXP
_LOG=LOG
_LOG10=LOG10
_SQRT=SQRT
_INT=INT
_NINT=NINT
_MAX=MAX
_MIN=MIN
_COSMO=  0.000000000000000    
_COSMOIT=  0.000000000000000    
_COSMOES=  0.000000000000000    
_COSMOEDS=  0.000000000000000    
_COSMOEC=  0.000000000000000    
_COSMOEDCORR=  0.000000000000000    
_FEPSI=  1.000000000000000    
_SL_IsMM=  0.000000000000000    
_SL_NSYM=  8.000000000000000    
_SL_System_BitSw=  0.000000000000000    
_SL_Unique_atoms=  0.000000000000000    
_SL_GRAD=  0.000000000000000    
_SL_MAXUPD_Hess=  5.000000000000000    
_SL_N_PRINT_COD=  5.000000000000000    
_SL_PRINT_CODES=  0.000000000000000    
_SL_BasType=  0.000000000000000    
_SL_Energy_Pred=  0.000000000000000    
_SL_New_Coords=  0.000000000000000    
_SL_Total_Nuclea=  0.000000000000000    
_SL_Highest_Mltp=  0.000000000000000    
_SL_Ref_Geom=  0.000000000000000    
_SL_Symmetry_ope=  1.000000000000000    
_SL_agrad=  0.000000000000000    
_SL_GrdMax=  0.000000000000000    
_SL_GrdNorm=  0.000000000000000    
_SL_GrdRMS=  0.000000000000000    
!LATTICE= -1.000000000000000    
!NEWLATTICE=  0.000000000000000    
!LATGRAD_VAR=FALSE
!SEW_LATTICE=  1.000000000000000    
!LOCAL=  0.000000000000000    
!SAVEDOM= -1.000000000000000    
!RESTDOM= -1.000000000000000    
!SAVEDOM_HF= -1.000000000000000    
!RESTDOM_HF= -1.000000000000000    
!HESSREC=  0.000000000000000    
!FREQREC=  0.000000000000000    
!NMODREC=  0.000000000000000    
!GTASKS=  0.000000000000000    
!HTASKS=  0.000000000000000    
!THRCHG= 0.1000000000000000    
!DEBUG= -1.000000000000000    
!CFIT_CPHF=  0.000000000000000    
!RDOMAUX_CPHF=  3.000000000000000    
!THRAO_CPHF= 0.1000000000000000E-09
!THRMO_CPHF= 0.1000000000000000E-08
!THROV_CPHF= 0.1000000000000000E-11
!THRSW_CPHF= 0.1000000000000000E-09
!THRPROD_CPHF= 0.1000000000000000E-08
!THRAOPR_CPHF= 0.1000000000000000E-11
!CFIT_SCFGRD=  0.000000000000000    
!RDOMAUX_SCFGRD=  5.000000000000000    
!THRAO_SCFGRD= 0.1000000000000000E-09
!THRMO_SCFGRD= 0.1000000000000000E-08
!THROV_SCFGRD= 0.1000000000000000E-11
!THRSW_SCFGRD= 0.1000000000000000E-09
!THRPROD_SCFGRD= 0.1000000000000000E-08
!THRAOPR_SCFGRD= 0.1000000000000000E-11
!LOCFIT_SCF=  0.000000000000000    
!LOCFIT_MP2= -1.000000000000000    
_RIDOM=  0.000000000000000    
!CC2_METHOD=  0.000000000000000    
_BASIS2006=FALSE
_SVDDEL= -1.000000000000000    
_SVDDELA= -1.000000000000000    
_SVDDELP= -1.000000000000000    
_SVDDELF= -1.000000000000000    
_SVDDELS= -1.000000000000000    
_SVDDEL_ABS= -1.000000000000000    
_SVDDELA_ABS= -1.000000000000000    
_SVDDELP_ABS= -1.000000000000000    
_SVDDELF_ABS= -1.000000000000000    
_SVDDELS_ABS= -1.000000000000000    
_MAXBASIS=  0.000000000000000    
!OPT_CONICAL=  0.000000000000000    
!CLEARSP_JGRID=  0.000000000000000    
_4EXT_NDISKS=  1.000000000000000    
!ZMP=  0.000000000000000    
_MAXIT_ZMP=  500.0000000000000    
_MAXDIS_ZMP=  100.0000000000000    
_ACCU_ZMP=  14.00000000000000    
_SHIFTA_ZMP= -100.0000000000000    
!EMBEDFLAG=  1.000000000000000    
!EMBED=FALSE
!EMBED_F12=FALSE
!EMBEDNUC=  0.000000000000000    
_EMBEDENERGY=  0.000000000000000    
_KSPACETIME=  0.000000000000000    
_RSPACETIME=  0.000000000000000    
!EMBED_DFC=FALSE
!NUM_VOIDS=  0.000000000000000    
_IBODY=  0.000000000000000    
_EMBE_TOTAL=  0.000000000000000    
_EMBE_HF=  0.000000000000000    
_EMBE_CORR=  0.000000000000000    
!EDFT=  0.000000000000000    
_IFASTLATGRAD=  0.000000000000000    
_SINDEX=  0.000000000000000    
GX1=  0.000000000000000    
GY1=  0.000000000000000    
GZ1=-0.7000000000000000    
GX2=  0.000000000000000    
GY2=  0.000000000000000    
GZ2= 0.7000000000000000    
[Atoms] Angs
H     1    1         0.0000000000        0.0000000000       -0.3704240463
H     2    1         0.0000000000        0.0000000000        0.3704240463
[GTO]
  1 0
 s    4  1.00
  0.1301000000D+02  0.1968498999D-01
  0.1962000000D+01  0.1379769298D+00
  0.4446000000D+00  0.4781477569D+00
  0.1220000000D+00  0.5012397451D+00
 s    4  1.00
  0.1301000000D+02  0.0000000000D+00
  0.1962000000D+01  0.0000000000D+00
  0.4446000000D+00  0.0000000000D+00
  0.1220000000D+00  0.1000000000D+01
 s    1  1.00
  0.2974000000D-01  0.1000000000D+01
 p    1  1.00
  0.7270000000D+00  0.1000000000D+01
 p    1  1.00
  0.1410000000D+00  0.1000000000D+01
  
  2 0
 s    4  1.00
  0.1301000000D+02  0.1968498999D-01
  0.1962000000D+01  0.1379769298D+00
  0.4446000000D+00  0.4781477569D+00
  0.1220000000D+00  0.5012397451D+00
 s    4  1.00
  0.1301000000D+02  0.0000000000D+00
  0.1962000000D+01  0.0000000000D+00
  0.4446000000D+00  0.0000000000D+00
  0.1220000000D+00  0.1000000000D+01
 s    1  1.00
  0.2974000000D-01  0.1000000000D+01
 p    1  1.00
  0.7270000000D+00  0.1000000000D+01
 p    1  1.00
  0.1410000000D+00  0.1000000000D+01
 
 
[MO]
 Sym=      1.1
 Ene=      -1.2797
 Spin= Alpha
 Occup=    1.000000
1 0.85399483741559
2 -0.37402456092629
3 0.001966420818469
4 0.0
5 0.0
6 0.048078297114660
7 0.0
8 0.0
9 0.000446307954919
10 0.85399483741559
11 -0.37402456092629
12 0.001966420818469
13 0.0
14 0.0
15 -0.048078297114660
16 0.0
17 0.0
18 -0.000446307954919
 Sym=      1.5
 Ene=      -0.2028
 Spin= Alpha
 Occup=    0.000000
1 -0.54692532407824
2 -0.93618096733857
3 -1.08634383996773
4 0.0
5 0.0
6 0.050672601739639
7 0.0
8 0.0
9 0.014840091059759
10 0.54692532407824
11 0.93618096733857
12 1.08634383996773
13 0.0
14 0.0
15 0.050672601739639
16 0.0
17 0.0
18 0.014840091059759
 Sym=      2.1
 Ene=      -0.1407
 Spin= Alpha
 Occup=    0.000000
1 -0.25574103464917
2 0.043042865409490
3 0.57260550055413
4 0.0
5 0.0
6 -0.019335583669222
7 0.0
8 0.0
9 -0.047900316032530
10 -0.25574103464917
11 0.043042865409490
12 0.57260550055413
13 0.0
14 0.0
15 0.019335583669222
16 0.0
17 0.0
18 0.047900316032530
 Sym=      1.2
 Ene=      -0.0750
 Spin= Alpha
 Occup=    0.000000
1 0.0
2 0.0
3 0.0
4 0.044443550140675
5 0.0
6 0.0
7 0.49590492738023
8 0.0
9 0.0
10 0.0
11 0.0
12 0.0
13 0.044443550140675
14 0.0
15 0.0
16 0.49590492738023
17 0.0
18 0.0
 Sym=      1.3
 Ene=      -0.0750
 Spin= Alpha
 Occup=    0.000000
1 0.0
2 0.0
3 0.0
4 0.0
5 0.044443550140675
6 0.0
7 0.0
8 0.49590492738023
9 0.0
10 0.0
11 0.0
12 0.0
13 0.0
14 0.044443550140675
15 0.0
16 0.0
17 0.49590492738023
18 0.0
 Sym=      2.5
 Ene=      -0.0523
 Spin= Alpha
 Occup=    0.000000
1 -0.36224122913353
2 -3.08907119691239
3 4.91738754096353
4 0.0
5 0.0
6 0.041720990543133
7 0.0
8 0.0
9 -0.51332678403742
10 0.36224122913353
11 3.08907119691239
12 -4.91738754096353
13 0.0
14 0.0
15 0.041720990543133
16 0.0
17 0.0
18 -0.51332678403742
 Sym=      3.1
 Ene=       0.1059
 Spin= Alpha
 Occup=    0.000000
1 0.37987435129017
2 -1.15228566513613
3 0.53143128494740
4 0.0
5 0.0
6 0.022417145697411
7 0.0
8 0.0
9 1.10480798943737
10 0.37987435129017
11 -1.15228566513613
12 0.53143128494740
13 0.0
14 0.0
15 -0.022417145697411
16 0.0
17 0.0
18 -1.10480798943737
 Sym=      1.7
 Ene=       0.1558
 Spin= Alpha
 Occup=    0.000000
1 0.0
2 0.0
3 0.0
4 0.0
5 -0.007380600427960
6 0.0
7 0.0
8 1.97378163102142
9 0.0
10 0.0
11 0.0
12 0.0
13 0.0
14 0.007380600427960
15 0.0
16 0.0
17 -1.97378163102142
18 0.0
 Sym=      1.6
 Ene=       0.1558
 Spin= Alpha
 Occup=    0.000000
1 0.0
2 0.0
3 0.0
4 -0.007380600427960
5 0.0
6 0.0
7 1.97378163102142
8 0.0
9 0.0
10 0.0
11 0.0
12 0.0
13 0.007380600427960
14 0.0
15 0.0
16 -1.97378163102142
17 0.0
18 0.0
 Sym=      3.5
 Ene=       0.2367
 Spin= Alpha
 Occup=    0.000000
1 -0.59110122605475
2 29.1670230165466
3 -3.39324222276356
4 0.0
5 0.0
6 -0.005554672177058
7 0.0
8 0.0
9 7.13944361751672
10 0.59110122605475
11 -29.1670230165466
12 3.39324222276356
13 0.0
14 0.0
15 -0.005554672177058
16 0.0
17 0.0
18 7.13944361751672
 Sym=      4.1
 Ene=       0.2981
 Spin= Alpha
 Occup=    0.000000
1 -1.22870401423605
2 1.17953240626087
3 -0.21109746534172
4 0.0
5 0.0
6 -0.020923905563520
7 0.0
8 0.0
9 1.10220530817832
10 -1.22870401423605
11 1.17953240626087
12 -0.21109746534172
13 0.0
14 0.0
15 0.020923905563520
16 0.0
17 0.0
18 -1.10220530817832
 Sym=      4.5
 Ene=       0.7539
 Spin= Alpha
 Occup=    0.000000
1 1.55475571104411
2 25.8854316053640
3 -0.83464593558200
4 0.0
5 0.0
6 -0.43454361075341
7 0.0
8 0.0
9 7.51147170708175
10 -1.55475571104411
11 -25.8854316053640
12 0.83464593558200
13 0.0
14 0.0
15 -0.43454361075341
16 0.0
17 0.0
18 7.51147170708175
 Sym=      2.2
 Ene=       1.0235
 Spin= Alpha
 Occup=    0.000000
1 0.0
2 0.0
3 0.0
4 0.66821934186857
5 0.0
6 0.0
7 -0.33370317742434
8 0.0
9 0.0
10 0.0
11 0.0
12 0.0
13 0.66821934186857
14 0.0
15 0.0
16 -0.33370317742434
17 0.0
18 0.0
 Sym=      2.3
 Ene=       1.0235
 Spin= Alpha
 Occup=    0.000000
1 0.0
2 0.0
3 0.0
4 0.0
5 0.66821934186857
6 0.0
7 0.0
8 -0.33370317742434
9 0.0
10 0.0
11 0.0
12 0.0
13 0.0
14 0.66821934186857
15 0.0
16 0.0
17 -0.33370317742434
18 0.0
 Sym=      5.1
 Ene=       1.5011
 Spin= Alpha
 Occup=    0.000000
1 -0.75012816822352
2 0.81586684201783
3 -0.15532242797934
4 0.0
5 0.0
6 0.76165402544826
7 0.0
8 0.0
9 -0.48375863686873
10 -0.75012816822352
11 0.81586684201783
12 -0.15532242797934
13 0.0
14 0.0
15 -0.76165402544826
16 0.0
17 0.0
18 0.48375863686873
 Sym=      2.6
 Ene=       1.6885
 Spin= Alpha
 Occup=    0.000000
1 0.0
2 0.0
3 0.0
4 1.06928880421032
5 0.0
6 0.0
7 -0.78666092907776
8 0.0
9 0.0
10 0.0
11 0.0
12 0.0
13 -1.06928880421032
14 0.0
15 0.0
16 0.78666092907776
17 0.0
18 0.0
 Sym=      2.7
 Ene=       1.6885
 Spin= Alpha
 Occup=    0.000000
1 0.0
2 0.0
3 0.0
4 0.0
5 1.06928880421032
6 0.0
7 0.0
8 -0.78666092907776
9 0.0
10 0.0
11 0.0
12 0.0
13 0.0
14 -1.06928880421032
15 0.0
16 0.0
17 0.78666092907776
18 0.0
 Sym=      5.5
 Ene=       3.0950
 Spin= Alpha
 Occup=    0.000000
1 4.40249318382123
2 -10.4199920953395
3 0.46154596122558
4 0.0
5 0.0
6 2.16683623170756
7 0.0
8 0.0
9 -2.22912232817062
10 -4.40249318382123
11 10.4199920953395
12 -0.46154596122558
13 0.0
14 0.0
15 2.16683623170756
16 0.0
17 0.0
18 -2.22912232817062
