[Molden Format]
[Molpro variables]
_NUMVAR=  770.0000000000000    
_AVOGAD= 0.6022136736000000E+24
_BOLTZ= 0.1380658000000000E-22
_CLIGHT=  29979245800.00000    
_EV2006= 0.3674930886769165E-01
_EV= 0.3674932534394180E-01
_ENULL= 0.8854187817000000E-11
_KJOULE= 0.3808798324128737E-03
_KJOULE/MOL= 0.3808798324128737E-03
_CM= 0.4556335267302901E-05
_CM-1= 0.4556335267302901E-05
_DEB2SI= 0.3335641000000000E-29
_AMU2AU=  1822.888390000000    
_KCAL= 0.1593601117815568E-02
_KCAL/MOL= 0.1593601117815568E-02
_KELVIN2006= 0.3166828861084835E-05
_KELVIN= 0.3166814820820034E-05
_JOULE= 0.4359748200000000E-17
_HERTZ2006= 0.1519829850815779E-15
_HERTZ= 0.1519829846011223E-15
_HZ2006= 0.1519829850815779E-15
_HZ= 0.1519829846011223E-15
_JPCAL=  4.184000000000000    
_PLANCK= 0.6626075540000000E-33
_TOA2006= 0.5291772490000000    
_TOA= 0.5291772090000000    
_TOANG2006= 0.5291772490000000    
_TOANG= 0.5291772090000000    
_TORAD= 0.1745329251994330E-01
_TOCM=  219474.6306700000    
_TODEBYE=  2.541580000000000    
_TOEV2006=  27.21139610000000    
_TOE= 0.4803242000000000E-09
_TOEV=  27.21138390000000    
_TOHERTZ2006=  6579683899900000.    
_TOHERTZ=  6579683920700000.    
_TOHZ2006=  6579683899900000.    
_TOHZ=  6579683920700000.    
_TOK2006=  315773.3000000000    
_TOK=  315774.7000000000    
_TOKCAL=  627.5096000000000    
_TOKELVIN2006=  315773.3000000000    
_TOKELVIN=  315774.7000000000    
_TOKJ=  2625.500000000000    
_TOKJOULE=  2625.500000000000    
_TOKG= 0.1660565586000000E-26
_ANG2006=  1.889725988578923    
_ANG=  1.889726131421507    
_ANGSTROM2006=  1.889725988578923    
_ANGSTROM=  1.889726131421507    
_RPAREF=  0.000000000000000    
_RPADISS=  0.000000000000000    
_IGNORE_UNDEF=  2.000000000000000    
_STRICTCHECK=  0.000000000000000    
_SEW_ONEEL=  0.000000000000000    
_CPPDONE=FALSE
_DKROLL_DONE=  0.000000000000000    
_FOCKDONE=TRUE
_GRADONE=FALSE
_HESSDONE=FALSE
_INTDONE=TRUE
_SCFDONE=TRUE
_MODUL_CUDA=FALSE
_MODUL_SLATER=FALSE
_MODUL_MRCC=FALSE
_MODUL_NBO6=FALSE
_MODUL_NECI=TRUE
_MRCC_EX 100 -1.0 3.3 0.0 100.0EC=
_FITC_AO_SAVED=FALSE
_FITC_MO_SAVED=FALSE
_SHARED_FS=TRUE
_LSTYP=SEWARD
_INTYP=INTS
_GEOMTYP=ZMAT
_GRADTYP=ALASKA
_DIRECT=FALSE
_DKROLL=FALSE
_DKHO= -1.000000000000000    
_DKHP= -1.000000000000000    
_SYNCM=  0.000000000000000    
_DFTNAME=  0.000000000000000    
_DFTFUNC=  0.000000000000000    
_BASIS=3-21G
_BASISSETS=
_ZSIGNX 100 -1.0 3.3 0.0 100.0=
_ZSIGNY=
_ZSIGNZ=
_ZCENTRE=
_ZSYMEL=
_ZPLANE=
_ZUNIT=
_ZORIENT=  1.000000000000000    
_CHARGE=  1.000000000000000    
_SCFCHARGE=  1.000000000000000    
_MCCHARGE=  1.000000000000000    
_CICHARGE=  1.000000000000000    
_CCCHARGE=  1.000000000000000    
_NELEC=  2.000000000000000    
!NELEC=  2.000000000000000    
_SCFNELEC=  2.000000000000000    
_MCNELEC=  2.000000000000000    
_CINELEC=  2.000000000000000    
_CCNELEC=  2.000000000000000    
_SPIN=  2.000000000000000    
!SPIN=  0.000000000000000    
_SCFSPIN=  0.000000000000000    
_MCSPIN=  0.000000000000000    
_CISPIN=  0.000000000000000    
_CCSPIN=  0.000000000000000    
_STATE=  0.000000000000000    
_SCFSTATE=  0.000000000000000    
_MCSTATE=  0.000000000000000    
_CISTATE=  0.000000000000000    
_SYMMETRY=  0.000000000000000    
!SYMMETRY=  0.000000000000000    
_SCFSYMMETRY=  0.000000000000000    
_MCSYMMETRY=  0.000000000000000    
_CISYMMETRY=  0.000000000000000    
_CCSYMMETRY=  0.000000000000000    
_SCFSYMM=  0.000000000000000    
_MCSYMM=  0.000000000000000    
_CISYMM=  0.000000000000000    
_CCSYMM=  0.000000000000000    
_SCFSYM=  0.000000000000000    
_MCSYM=  0.000000000000000    
_CISYM=  0.000000000000000    
_CCSYM=  0.000000000000000    
_WEIGHT=  0.000000000000000    
_MCWEIGHT=  0.000000000000000    
_LQUANT=  0.000000000000000    
_MCLQUANT=  0.000000000000000    
_OPTCONV=  0.000000000000000    
_QSDSTEP=  0.000000000000000    
_QSDIRC=  0.000000000000000    
_PROGRAM=HF-SCF
_CPUSTEP= 0.9999999999999981E-02
_SYSSTEP=  0.000000000000000    
_WALLSTEP= 0.9000000000000000E-01
!PERT= 0.9000000000000000E-01
!DFMP2= 0.9000000000000000E-01
!DFSCF=  0.000000000000000    
!DFHFENERG=  0.000000000000000    
!SCSGRD=  0.000000000000000    
_ATCHARGE=  0.000000000000000    
_BASINP=  610.0000000000000    
_CARTESIAN=  610.0000000000000    
_CFIT=  610.0000000000000    
_CFIT_FRED=  610.0000000000000    
_CFIT_FRED_THR=  610.0000000000000    
_CHII2=  610.0000000000000    
_CHIRS=  610.0000000000000    
_COEFF=  610.0000000000000    
_CPU2IDX 100 -1.0 3.3 0.0 100.0_CFIT=  610.0000000000000    
_CPU3IDX 100 -1.0 3.3 0.0 100.0_CFIT=  610.0000000000000    
_CPUASMBL_CFIT=  610.0000000000000    
_CPUBLAS1=  610.0000000000000    
_CPUBLAS2=  610.0000000000000    
_CPUBLAS3=  610.0000000000000    
_CPUINT_DTRAF=  610.0000000000000    
_CPUSOLVE_CFIT=  610.0000000000000    
_CPUTOT= 0.1400000000000000    
_CPUTR1_CFIT= 0.1400000000000000    
_CPUTR2_CFIT= 0.1400000000000000    
_CPUINV_CFIT= 0.1400000000000000    
_CPUFIT_CFIT= 0.1400000000000000    
_CPUTRANS_CFIT= 0.1400000000000000    
_CPUSCREEN_CFIT= 0.1400000000000000    
_CPUTRANS_DTRAF= 0.1400000000000000    
_CPUTRA_DTRAF= 0.1400000000000000    
_CPUTRIPL= 0.1400000000000000    
_SYSTRIPL= 0.1400000000000000    
_WALLTRIPL= 0.1400000000000000    
_CPUCCSD= 0.1400000000000000    
_SYSCCSD= 0.1400000000000000    
_WALLCCSD= 0.1400000000000000    
_CPUSORT=  0.000000000000000    
_SYSSORT= 0.9999999999999998E-02
_WALLSORT= 0.1999999955296516E-01
_CPUF12= 0.1999999955296516E-01
_SYSF12= 0.1999999955296516E-01
_WALLF12= 0.1999999955296516E-01
_CPUF12B= 0.1999999955296516E-01
_SYSF12B= 0.1999999955296516E-01
_WALLF12B= 0.1999999955296516E-01
_CPUTRANS= 0.1999999955296516E-01
_SYSTRANS= 0.1999999955296516E-01
_WALLTRANS= 0.1999999955296516E-01
_CPU2EX 100 -1.0 3.3 0.0 100.0T= 0.1999999955296516E-01
_CPU3EX 100 -1.0 3.3 0.0 100.0T= 0.1999999955296516E-01
_CPU4EX 100 -1.0 3.3 0.0 100.0T= 0.1999999955296516E-01
_WALL2EX 100 -1.0 3.3 0.0 100.0T= 0.1999999955296516E-01
_WALL3EX 100 -1.0 3.3 0.0 100.0T= 0.1999999955296516E-01
_WALL4EX 100 -1.0 3.3 0.0 100.0T= 0.1999999955296516E-01
_DALTON= 0.1999999955296516E-01
_DARW= 0.1999999955296516E-01
_DECAY= 0.1999999955296516E-01
_DELE_CFIT= 0.1999999955296516E-01
_DELG_CFIT= 0.1999999955296516E-01
_DELTA= 0.1999999955296516E-01
_DFTEX 100 -1.0 3.3 0.0 100.0FAC=  1.000000000000000    
_DFTFAC=  1.000000000000000    
_DFTFUN=  1.000000000000000    
_DFTFUNS=  1.000000000000000    
_DMEX 100 -1.0 3.3 0.0 100.0=  1.000000000000000    
_DMEY=  1.000000000000000    
_DMEZ=  1.000000000000000    
_DMNX 100 -1.0 3.3 0.0 100.0=  1.000000000000000    
_DMNY=  1.000000000000000    
_DMNZ=  1.000000000000000    
_DMSCF=  1.000000000000000    
_DMSCF_Efield=  1.000000000000000    
_DMSCF_I=  1.000000000000000    
_DMSCF_J=  1.000000000000000    
_DMSCF_K=  1.000000000000000    
_DMSCF_N1=  1.000000000000000    
_DMSCF_N2=  1.000000000000000    
_DMSCF_NUC=  1.000000000000000    
_DMSCF_T=  1.000000000000000    
_DMSCF_V=  1.000000000000000    
_DMX 100 -1.0 3.3 0.0 100.0=  0.000000000000000    
_DMY=  0.000000000000000    
_DMZ=  0.000000000000000    
_DMX 100 -1.0 3.3 0.0 100.0_SCF=  0.000000000000000    
_DMY_SCF=  0.000000000000000    
_DMZ_SCF=  0.000000000000000    
_DMZCOR=  0.000000000000000    
_DM_RHO1=  0.000000000000000    
_DM_RVAL=  0.000000000000000    
_DUMMYATOMS=  0.000000000000000    
_FREQUENCIES=  0.000000000000000    
_EDISP=  0.000000000000000    
_EEDISP=  0.000000000000000    
_EINTRA=  0.000000000000000    
_EINTRA_R12=  0.000000000000000    
_EINTER_R12=  0.000000000000000    
_EHOMO=-0.5923765916759420    
_EIONIC=-0.5923765916759420    
_ELUMO= 0.2639385668860617    
_EMP2= 0.2639385668860617    
_EMP2_SING= 0.2639385668860617    
_EMP2_TRIP= 0.2639385668860617    
_EMP2_SINGLES= 0.2639385668860617    
_EMP2_SINGLES_D= 0.2639385668860617    
_EMP2_SCS= 0.2639385668860617    
_EMP2_STRONG= 0.2639385668860617    
_EMP2_CLOSE= 0.2639385668860617    
_EMP2_WEAK= 0.2639385668860617    
_EMP2_DIST= 0.2639385668860617    
_ECSING= 0.2639385668860617    
_ECTRIP= 0.2639385668860617    
_ECSINGLES= 0.2639385668860617    
_EF12= 0.2639385668860617    
_EF12_SING= 0.2639385668860617    
_EF12_TRIP= 0.2639385668860617    
_ECSING_F12= 0.2639385668860617    
_ECTRIP_F12= 0.2639385668860617    
_EF12_RHFRELAX 100 -1.0 3.3 0.0 100.0= 0.2639385668860617    
_EF12_RHFRELAX 100 -1.0 3.3 0.0 100.0_C= 0.2639385668860617    
_EF12_CONVSUPPRS= 0.2639385668860617    
_EF12_CONVSUPPRT= 0.2639385668860617    
_EF12_SINGLES= 0.2639385668860617    
_EF12_SINGLES_C= 0.2639385668860617    
_EF12_SCS= 0.2639385668860617    
_EF12_STRONG= 0.2639385668860617    
_EF12_CLOSE= 0.2639385668860617    
_EF12_WEAK= 0.2639385668860617    
_EF12_DIST= 0.2639385668860617    
_EF12S= 0.2639385668860617    
_EF12S_SING= 0.2639385668860617    
_EF12S_TRIP= 0.2639385668860617    
_EF12S_SCS= 0.2639385668860617    
_EF12S_STRONG= 0.2639385668860617    
_EF12S_CLOSE= 0.2639385668860617    
_EF12S_WEAK= 0.2639385668860617    
_EF12S_DIST= 0.2639385668860617    
_EF12D= 0.2639385668860617    
_EF12D_SING= 0.2639385668860617    
_EF12D_TRIP= 0.2639385668860617    
_EF12D_SCS= 0.2639385668860617    
_EF12D_STRONG= 0.2639385668860617    
_EF12D_CLOSE= 0.2639385668860617    
_EF12D_WEAK= 0.2639385668860617    
_EF12D_DIST= 0.2639385668860617    
_EF12F= 0.2639385668860617    
_EF12F_SING= 0.2639385668860617    
_EF12F_TRIP= 0.2639385668860617    
_EF12F_SCS= 0.2639385668860617    
_EF12F_STRONG= 0.2639385668860617    
_EF12F_CLOSE= 0.2639385668860617    
_EF12F_WEAK= 0.2639385668860617    
_EF12F_DIST= 0.2639385668860617    
_EMP2R12_2AD= 0.2639385668860617    
_EMP2R12_2A= 0.2639385668860617    
_EMP2R12_2AP= 0.2639385668860617    
_EMP2R12_2SAD= 0.2639385668860617    
_EMP2R12_2SA= 0.2639385668860617    
_EMP2R12_2SAP= 0.2639385668860617    
_EMP2R12_2B= 0.2639385668860617    
_EMP2_R12= 0.2639385668860617    
_EMP2_R12_A= 0.2639385668860617    
_EMP2_R12_AP= 0.2639385668860617    
_EMP2_R12_AD= 0.2639385668860617    
_EMP2_R12_2A= 0.2639385668860617    
_EMP2_R12_2SA= 0.2639385668860617    
_EMP2_R12_2SAP= 0.2639385668860617    
_EMP2_R12_2SAD= 0.2639385668860617    
_EMP2_R12_2AP= 0.2639385668860617    
_EMP2_R12_DIAG= 0.2639385668860617    
_EMP2_R12_STRONG= 0.2639385668860617    
_EMP2_R12_CLOSE= 0.2639385668860617    
_EMP2_R12_WEAK= 0.2639385668860617    
_EMP2_R12_DIST= 0.2639385668860617    
_EMP2_R12_SING= 0.2639385668860617    
_EMP2_R12_TRIP= 0.2639385668860617    
_EMP2_R12_SCS= 0.2639385668860617    
_EMP2R= 0.2639385668860617    
_EMP3= 0.2639385668860617    
_EMP3R= 0.2639385668860617    
_EMP4= 0.2639385668860617    
_ENERGC= 0.2639385668860617    
_ENERGCL= 0.2639385668860617    
_ENERG_CC= 0.2639385668860617    
_ENERG_CV= 0.2639385668860617    
_ENERG_VV= 0.2639385668860617    
_ENERGD= 0.2639385668860617    
_ENERGD0= 0.2639385668860617    
_ENERGD1= 0.2639385668860617    
_ENERGD2= 0.2639385668860617    
_ENERGD3= 0.2639385668860617    
_ENERGD4= 0.2639385668860617    
_ENERGP= 0.2639385668860617    
_ENERGP0= 0.2639385668860617    
_ENERGP1= 0.2639385668860617    
_ENERGP2= 0.2639385668860617    
_ENERGP3= 0.2639385668860617    
_ENERGP4= 0.2639385668860617    
_ENERGR= 0.2639385668860617    
_ENERGRR= 0.2639385668860617    
_ENERGS= 0.2639385668860617    
_ENERGT= 0.2639385668860617    
_ENERGU= 0.2639385668860617    
_ENERGW= 0.2639385668860617    
_ENERGY= -1.122933365608831    
_ECORR= -1.122933365608831    
_ECORR_SZABO= -1.122933365608831    
_ECORR_TILDE= -1.122933365608831    
_ECORR_ACFDT= -1.122933365608831    
_ECORR_ACFDX 100 -1.0 3.3 0.0 100.0= -1.122933365608831    
_ECORR_DBAR= -1.122933365608831    
_ECORR_DBAX 100 -1.0 3.3 0.0 100.0= -1.122933365608831    
_ECORR_RCCD= -1.122933365608831    
_ECORR_DRCCD= -1.122933365608831    
_ECORR_SOSEX 100 -1.0 3.3 0.0 100.0= -1.122933365608831    
_ECORR_PLASM= -1.122933365608831    
_ECORR_LOGM= -1.122933365608831    
_ECORR_LSOX 100 -1.0 3.3 0.0 100.0= -1.122933365608831    
_ECORR_LRPA= -1.122933365608831    
_ENERGY_MP= -1.122933365608831    
_ECBS= -1.122933365608831    
_ECBSD= -1.122933365608831    
_ENUC= 0.7142857142857143    
_EPDIST= 0.7142857142857143    
_EPDIST_SING= 0.7142857142857143    
_EPDIST_TRIP= 0.7142857142857143    
_EPDIST_R12= 0.7142857142857143    
_EPDIST_SING_R12= 0.7142857142857143    
_EPDIST_TRIP_R12= 0.7142857142857143    
_EPSUM= 0.7142857142857143    
_EPSUM_R12= 0.7142857142857143    
_EPS1=-0.5923765916759420    
_EPS2=-0.5923765916759420    
_EPS3=-0.5923765916759420    
_EPS4=-0.5923765916759420    
_EPS5= 0.2639385668860617    
_EPS6= 0.2639385668860617    
_EPS7= 0.2639385668860617    
_EPS8= 0.2639385668860617    
_EREL= 0.2639385668860617    
_FLOPBLAS1= 0.2639385668860617    
_FLOPBLAS2= 0.2639385668860617    
_FLOPBLAS3= 0.2639385668860617    
_FLOPDGM= 0.2639385668860617    
_FLOPDGV= 0.2639385668860617    
_FLOPMX 100 -1.0 3.3 0.0 100.0M= 0.2639385668860617    
_FLOPMX 100 -1.0 3.3 0.0 100.0V= 0.2639385668860617    
_FREQSTEP= 0.2639385668860617    
!RS2GRSTATE= 0.2639385668860617    
!RS2GRSYM= 0.2639385668860617    
_GRADENERG= 0.2639385668860617    
_GRADEX 100 -1.0 3.3 0.0 100.0FAC=  9999.000000000000    
_GRADMETHOD=  1.000000000000000    
_NMRMETHOD=  0.000000000000000    
_GRADRECORD=  0.000000000000000    
_VIRIAL=  0.000000000000000    
_GRADX 100 -1.0 3.3 0.0 100.0=  0.000000000000000    
_GRADY=  0.000000000000000    
_GRADZ=  0.000000000000000    
_GRADVAR=  0.000000000000000    
_GRID=  0.000000000000000    
_GRID_FREEZE=  0.000000000000000    
!GRID_FREEZE= -1.000000000000000    
!GRIDREC= -1.000000000000000    
_GRID_WEIGHT_CUT= -1.000000000000000    
_GRID_BLOCKSIZE= -1.000000000000000    
_GRID_SPARSITY= -1.000000000000000    
_GRID_RMAX 100 -1.0 3.3 0.0 100.0= -1.000000000000000    
_GTOTAL= -1.000000000000000    
_HDIA= -1.000000000000000    
_HDIACI= -1.000000000000000    
_HEAT= -1.000000000000000    
_HTOTAL= -1.000000000000000    
_INCR_CORR= -1.000000000000000    
_INCR_COUNT= -1.000000000000000    
_INCR_READY= -1.000000000000000    
_ISCHI= -1.000000000000000    
_ITERATIONS=  5.000000000000000    
!INTCACHE=  5.000000000000000    
_KFIT=  5.000000000000000    
_LASTNELEC=  2.000000000000000    
_LASTSPIN=  0.000000000000000    
_LASTSYM=  1.000000000000000    
_LL=  1.000000000000000    
_MASSV=  1.000000000000000    
_MIN_ITER=  1.000000000000000    
_MIX 100 -1.0 3.3 0.0 100.0ANG=  1.000000000000000    
_MIX 100 -1.0 3.3 0.0 100.0ANGCI=  1.000000000000000    
_MPP_PROG=  0.000000000000000    
_MSENERGY=  0.000000000000000    
_NACME=  0.000000000000000    
_NBAS_CFIT=  0.000000000000000    
_NEWREC=  0.000000000000000    
_NGRID=  0.000000000000000    
_NPROC_MPP=  1.000000000000000    
_NPROC_MPPX 100 -1.0 3.3 0.0 100.0=  1.000000000000000    
_NPROC_SMP=  1.000000000000000    
_NUMSTEP=  0.000000000000000    
_OPNUC=  0.000000000000000    
_OPTCONVMX 100 -1.0 3.3 0.0 100.0=  0.000000000000000    
_OPTCONVRMS=  0.000000000000000    
_OPTGRAD=  0.000000000000000    
_OPTGRADMX 100 -1.0 3.3 0.0 100.0=  0.000000000000000    
_OPTGRADRMS=  0.000000000000000    
_OPTRMSMAX 100 -1.0 3.3 0.0 100.0=  0.000000000000000    
_OPTSTEP=  0.000000000000000    
_ORBITAL=  2100.200000000000    
_PAOINT_CFIT=  2100.200000000000    
_PENALTY=  2100.200000000000    
_PH1INT_CFIT=  2100.200000000000    
_PH1VEC_CFIT=  2100.200000000000    
_PH2INT_CFIT=  2100.200000000000    
_PHASE=  2100.200000000000    
_PI=  3.141592653589793    
_PMOINT_CFIT=  3.141592653589793    
_PMOVEC_CFIT=  3.141592653589793    
_POISSON_ECORR=  3.141592653589793    
_POISSON_ERROR=  3.141592653589793    
_POLX 100 -1.0 3.3 0.0 100.0X 100 -1.0 3.3 0.0 100.0=  3.141592653589793    
_POLX 100 -1.0 3.3 0.0 100.0Y=  3.141592653589793    
_POLX 100 -1.0 3.3 0.0 100.0Z=  3.141592653589793    
_POLYY=  3.141592653589793    
_POLYZ=  3.141592653589793    
_POLZZ=  3.141592653589793    
_POLYX 100 -1.0 3.3 0.0 100.0=  3.141592653589793    
_POLZX 100 -1.0 3.3 0.0 100.0=  3.141592653589793    
_POLZY=  3.141592653589793    
_POVINT_CFIT=  3.141592653589793    
_ROOT=  3.141592653589793    
_RPDIST=  3.141592653589793    
_RPMIN=  3.141592653589793    
_RPMAX 100 -1.0 3.3 0.0 100.0=  3.141592653589793    
_EPCON=  3.141592653589793    
_ECDIAG=  3.141592653589793    
_EPDIAG=  3.141592653589793    
!MCACT=  3.141592653589793    
!MCCLOSED=  3.141592653589793    
!MCFREEZE=  3.141592653589793    
!MCMS2=  3.141592653589793    
!MCNEL=  3.141592653589793    
!MCNSTSYM=  3.141592653589793    
!MCSTATE=  3.141592653589793    
!MCSYM=  3.141592653589793    
!MCWEIGHT=  3.141592653589793    
_SEIG_MIN= 0.1081091535762133    
_SEWPROP=TRUE
_SMAT=TRUE
_SMATCI=TRUE
_SSQUARED=TRUE
_STATUS=  1.000000000000000    
_SYSBLAS1=  1.000000000000000    
_SYSBLAS2=  1.000000000000000    
_SYSBLAS3=  1.000000000000000    
_SYSTEM_RC=  1.000000000000000    
_SYSTOT= 0.3000000000000000E-01
_T1DIAG= 0.3000000000000000E-01
_D1DIAG= 0.3000000000000000E-01
_TASK= 0.3000000000000000E-01
_TROV= 0.3000000000000000E-01
_HMAT= 0.3000000000000000E-01
_UMAT= 0.3000000000000000E-01
_UMATCI= 0.3000000000000000E-01
_VERSION=  2012001.000000000    
_WALLBLAS1=  2012001.000000000    
_WALLBLAS2=  2012001.000000000    
_WALLBLAS3=  2012001.000000000    
_WALLTOT= 0.7200000000000000    
_ZPE= 0.7200000000000000    
!DFBASIS_COUL= 0.7200000000000000    
!DFBASIS_EX 100 -1.0 3.3 0.0 100.0CH= 0.7200000000000000    
!DFBASIS_MP2= 0.7200000000000000    
!DFBASIS_MC= 0.7200000000000000    
!DFBASIS_F12K= 0.7200000000000000    
!DFBASIS_CCSD= 0.7200000000000000    
!RIBASIS_MP2= 0.7200000000000000    
!RIBASIS_EX 100 -1.0 3.3 0.0 100.0CH= 0.7200000000000000    
_DATE=30-Apr-20
_LASTORB=RHF
_MACHINE=Linux-4.8.0-1-amd64/utf-cluster(x86_64) 64 bit serial version
_METHODC=
_METHODT=
_OUTPUT=/home/zmasin/H2/target.molpro.out
_PGROUP=D2h
_SEMI=
_TIME=20:38:13
_ANSATZ=
_LIBMOL=/opt/MOLPRO/molpro/molpros_2012_1_Linux_x86_64_i8/lib/
_VDIAG=
_UDIAG=
!AOINTADDSC=
_TRANSFORM_FORCE=
_SOLVE_ITER=
_VSCF_FREQ=
_VMCSCF_FREQ=
_VCI_FREQ=
_VMP2_FREQ=
_VSCF_INTENS=
_VMCSCF_INTENS=
_VCI_INTENS=
_VMP2_INTENS=
_VIB_PROG=
!EREF=
!VIBCNT=  0.000000000000000    
!RGHFCNT=  0.000000000000000    
!SURFREC=  0.000000000000000    
!POLYREC=  0.000000000000000    
!DIPREC=  0.000000000000000    
!VSCFREC=  0.000000000000000    
!VCIREC=  0.000000000000000    
!PVCIREC=  0.000000000000000    
!VMP2REC=  0.000000000000000    
!VMCSCFREC=  0.000000000000000    
!VMRCIREC=  0.000000000000000    
!VIBINFO=  0.000000000000000    
!GAREC=  0.000000000000000    
!SCFORB=  21002.00000000000    
!MCORB=  21002.00000000000    
!CIOCC=  21002.00000000000    
!CICORE=  21002.00000000000    
!CICLOS=  21002.00000000000    
!UNO_OCC=  21002.00000000000    
!UNO_CLOSED=  21002.00000000000    
!CINSTSYM=  21002.00000000000    
!CIISTSYM=  21002.00000000000    
!CIISTMS2=  21002.00000000000    
!CIISTNEL=  21002.00000000000    
!CIMS2=  21002.00000000000    
!NEWMOL= -1.000000000000000    
!NEWSYM= -1.000000000000000    
!NEWORIENT= -1.000000000000000    
_SLFILES=slscratch
_NGSSTO=  9.000000000000000    
_SIN=SIN
_COS=COS
_TAN=TAN
_ACOS=ACOS
_ASIN=ASIN
_ATAN=ATAN
_COSH=COSH
_SINH=SINH
_TANH=TANH
_ABS=ABS
_MOD=MOD
_ERF=ERF
_REFC=REFC
_ERFC=ERFC
_HYPOT=HYPOT
_J0=J0
_J1=J1
_JN=JN
_GAMMA=GAMMA
_LGAMMA=LGAMMA
_Y0=Y0
_Y1=Y1
_YN=YN
_EX 100 -1.0 3.3 0.0 100.0P=EX 100 -1.0 3.3 0.0 100.0P
_LOG=LOG
_LOG10=LOG10
_SQRT=SQRT
_INT=INT
_NINT=NINT
_MAX 100 -1.0 3.3 0.0 100.0=MAX 100 -1.0 3.3 0.0 100.0
_MIN=MIN
_COSMO=  0.000000000000000    
_COSMOIT=  0.000000000000000    
_COSMOES=  0.000000000000000    
_COSMOEDS=  0.000000000000000    
_COSMOEC=  0.000000000000000    
_COSMOEDCORR=  0.000000000000000    
_FEPSI=  1.000000000000000    
_SL_IsMM=  0.000000000000000    
_SL_NSYM=  8.000000000000000    
_SL_System_BitSw=  0.000000000000000    
_SL_Unique_atoms=  0.000000000000000    
_SL_Last_energy=  0.000000000000000    
_SL_GRAD=  0.000000000000000    
_SL_MAX 100 -1.0 3.3 0.0 100.0UPD_Hess=  5.000000000000000    
_SL_N_PRINT_COD=  5.000000000000000    
_SL_PRINT_CODES=  0.000000000000000    
_SL_BasType=  0.000000000000000    
_SL_Energy_Pred=  0.000000000000000    
_SL_New_Coords=  0.000000000000000    
_SL_Total_Nuclea=  0.000000000000000    
_SL_Highest_Mltp=  0.000000000000000    
_SL_Ref_Geom=  0.000000000000000    
_SL_Symmetry_ope=  1.000000000000000    
_SL_agrad=  0.000000000000000    
_SL_GrdMax=  0.000000000000000    
_SL_GrdNorm=  0.000000000000000    
_SL_GrdRMS=  0.000000000000000    
_CONFIG=  0.000000000000000    
_OCC=  0.000000000000000    
_CORE=  0.000000000000000    
_CLOSED=  0.000000000000000    
_SCFOCC=  0.000000000000000    
_SCFCLOSED=  0.000000000000000    
_SCFCORE=  0.000000000000000    
_MCOCC=  0.000000000000000    
_MCCLOSED=  0.000000000000000    
_MCFROZEN=  0.000000000000000    
_MCCORE=  0.000000000000000    
_CIOCC=  0.000000000000000    
_CICLOSED=  0.000000000000000    
_CICORE=  0.000000000000000    
_CCOCC=  0.000000000000000    
_CCCLOSED=  0.000000000000000    
_CCCORE=  0.000000000000000    
_SRX 100 -1.0 3.3 0.0 100.0C=  0.000000000000000    
_SRC=  0.000000000000000    
_SRX 100 -1.0 3.3 0.0 100.0=  0.000000000000000    
_SRH=  0.000000000000000    
_E_EX 100 -1.0 3.3 0.0 100.0CHANGE=  0.000000000000000    
!LATTICE= -1.000000000000000    
!NEWLATTICE=  0.000000000000000    
!LATGRAD_VAR=FALSE
!SEW_LATTICE=  1.000000000000000    
_LATGRADX 100 -1.0 3.3 0.0 100.0=  1.000000000000000    
_LATGRADY=  1.000000000000000    
_LATGRADZ=  1.000000000000000    
!SCALTABINIT=  1.000000000000000    
!LOCAL=  0.000000000000000    
!SAVEOCC=  0.000000000000000    
!SAVEDOM= -1.000000000000000    
!RESTDOM= -1.000000000000000    
!SAVEDOM_HF= -1.000000000000000    
!RESTDOM_HF= -1.000000000000000    
!HESSREC=  0.000000000000000    
!FREQREC=  0.000000000000000    
!NMODREC=  0.000000000000000    
!GTASKS=  0.000000000000000    
!HTASKS=  0.000000000000000    
!THRCHG= 0.1000000000000000    
!DEBUG= -1.000000000000000    
!CFIT_CPHF=  0.000000000000000    
!RDOMAUX 100 -1.0 3.3 0.0 100.0_CPHF=  3.000000000000000    
!THRAO_CPHF= 0.1000000000000000E-09
!THRMO_CPHF= 0.1000000000000000E-08
!THROV_CPHF= 0.1000000000000000E-11
!THRSW_CPHF= 0.1000000000000000E-09
!THRPROD_CPHF= 0.1000000000000000E-08
!THRAOPR_CPHF= 0.1000000000000000E-11
!CFIT_SCFGRD=  0.000000000000000    
!RDOMAUX 100 -1.0 3.3 0.0 100.0_SCFGRD=  5.000000000000000    
!THRAO_SCFGRD= 0.1000000000000000E-09
!THRMO_SCFGRD= 0.1000000000000000E-08
!THROV_SCFGRD= 0.1000000000000000E-11
!THRSW_SCFGRD= 0.1000000000000000E-09
!THRPROD_SCFGRD= 0.1000000000000000E-08
!THRAOPR_SCFGRD= 0.1000000000000000E-11
!LOCFIT_SCF=  0.000000000000000    
!LOCFIT_MP2= -1.000000000000000    
_RIDOM=  0.000000000000000    
_FCI_METHOD=  0.000000000000000    
!CC2_METHOD=  0.000000000000000    
_BASIS2006=FALSE
_SVDDEL= -1.000000000000000    
_SVDDELA= -1.000000000000000    
_SVDDELP= -1.000000000000000    
_SVDDELF= -1.000000000000000    
_SVDDELS= -1.000000000000000    
_SVDDEL_ABS= -1.000000000000000    
_SVDDELA_ABS= -1.000000000000000    
_SVDDELP_ABS= -1.000000000000000    
_SVDDELF_ABS= -1.000000000000000    
_SVDDELS_ABS= -1.000000000000000    
_MAX 100 -1.0 3.3 0.0 100.0BASIS=  0.000000000000000    
!OPT_CONICAL=  0.000000000000000    
!CLEARSP_JGRID=  0.000000000000000    
_SHLDTENSOR=  0.000000000000000    
_SHLDTENSORDIA=  0.000000000000000    
_SHLDTENSORPARA=  0.000000000000000    
_OMEGAF_S=  0.000000000000000    
_OMEGAF_T=  0.000000000000000    
_DIPMOM_GS=  0.000000000000000    
_DIPMOM_GS_REL=  0.000000000000000    
_DIPMOM_SING=  0.000000000000000    
_DIPMOM_SING_REL=  0.000000000000000    
_DIPMOM_TRIP=  0.000000000000000    
_DIPMOM_TRIP_REL=  0.000000000000000    
_4EX 100 -1.0 3.3 0.0 100.0T_NDISKS=  1.000000000000000    
_RE=  1.000000000000000    
_BE=  1.000000000000000    
_AE=  1.000000000000000    
_WE=  1.000000000000000    
_WEX 100 -1.0 3.3 0.0 100.0E=  1.000000000000000    
_WEYE=  1.000000000000000    
_METHOD=  1.000000000000000    
_C0=  1.000000000000000    
_C0R=  1.000000000000000    
_REGRESSION_SLOPE=  1.000000000000000    
_REGRESSION_INTERCEPT=  1.000000000000000    
_LOWERBOUNDMIN_SLOPE=  1.000000000000000    
_LOWERBOUNDMIN_INTERCEPT=  1.000000000000000    
_UPPERBOUNDMIN_SLOPE=  1.000000000000000    
_UPPERBOUNDMIN_INTERCEPT=  1.000000000000000    
_LOWERBOUNDMAX 100 -1.0 3.3 0.0 100.0_SLOPE=  1.000000000000000    
_LOWERBOUNDMAX 100 -1.0 3.3 0.0 100.0_INTERCEPT=  1.000000000000000    
_UPPERBOUNDMAX 100 -1.0 3.3 0.0 100.0_SLOPE=  1.000000000000000    
_UPPERBOUNDMAX 100 -1.0 3.3 0.0 100.0_INTERCEPT=  1.000000000000000    
!ZMP=  0.000000000000000    
_MAX 100 -1.0 3.3 0.0 100.0IT_ZMP=  500.0000000000000    
_MAX 100 -1.0 3.3 0.0 100.0DIS_ZMP=  100.0000000000000    
_ACCU_ZMP=  14.00000000000000    
_SHIFTA_ZMP= -100.0000000000000    
!EMBEDFLAG=  1.000000000000000    
!EMBED=FALSE
!EMBED_F12=FALSE
!EMBEDNUC=  0.000000000000000    
_EMBEDENERGY=  0.000000000000000    
_KSPACETIME=  0.000000000000000    
_RSPACETIME=  0.000000000000000    
!EMBED_DFC=FALSE
!NUM_VOIDS=  0.000000000000000    
_IBODY=  0.000000000000000    
_EMBE_TOTAL=  0.000000000000000    
_EMBE_HF=  0.000000000000000    
_EMBE_CORR=  0.000000000000000    
!EDFT=  0.000000000000000    
_IFASTLATGRAD=  0.000000000000000    
_SINDEX 100 -1.0 3.3 0.0 100.0=  0.000000000000000    
_F3SIZE=  0.000000000000000    
_F4SIZE=  0.000000000000000    
_AVDOM=  0.000000000000000    
_AVDOMS=  0.000000000000000    
!CPP_PROG=  0.000000000000000    
_FCIQMC_ERR=  0.000000000000000    
GX 100 -1.0 3.3 0.0 100.01=  0.000000000000000    
GY1=  0.000000000000000    
GZ1=-0.3704240463000000    
GX 100 -1.0 3.3 0.0 100.02=  0.000000000000000    
GY2=  0.000000000000000    
GZ2= 0.3704240463000000    
[Atoms] Angs
H     1    0         0.0000000000        0.0000000000       -0.3704240463
H     2    0         0.0000000000        0.0000000000        0.3704240463
X 100 -1.0 3.3 0.0 100.0
[GTO]
  1 0
 s    2  1.00
  0.5447178000D+01  0.1562849787D+00
  0.8245472400D+00  0.9046908767D+00
 s    1  1.00
  0.1831915800D+00  0.1000000000D+01
  
  2 0
 s    2  1.00
  0.5447178000D+01  0.1562849787D+00
  0.8245472400D+00  0.9046908767D+00
 s    1  1.00
  0.1831915800D+00  0.1000000000D+01
 
 
[MO]
 Sym=      1.1
 Ene=      -0.5924
 Spin= Alpha
 Occup=    2.000000
1 0.28971904341269
2 0.31195613757381
3 0.28971904341269
4 0.31195613757381
 Sym=      1.5
 Ene=       0.2639
 Spin= Alpha
 Occup=    0.000000
1 0.11263222844800
2 1.62119425287301
3 -0.11263222844800
4 -1.62119425287301
 Sym=      2.1
 Ene=       0.9207
 Spin= Alpha
 Occup=    0.000000
1 0.78587049782961
2 -0.66261979037591
3 0.78587049782961
4 -0.66261979037591
 Sym=      2.5
 Ene=       1.5246
 Spin= Alpha
 Occup=    0.000000
1 1.07320951911288
2 -1.26422763025206
3 -1.07320951911288
4 1.26422763025206
