[Molden Format]
[Molpro variables]
_NUMVAR=  828.0000000000000    
_AVOGAD= 0.6022136736000000E+24
_BOLTZ= 0.1380658000000000E-22
_CLIGHT=  29979245800.00000    
_EV2006= 0.3674930886769165E-01
_EV= 0.3674932534394180E-01
_ENULL= 0.8854187817000000E-11
_KJOULE= 0.3808798324128737E-03
_KJOULE/MOL= 0.3808798324128737E-03
_CM= 0.4556335267302901E-05
_CM-1= 0.4556335267302901E-05
_DEB2SI= 0.3335641000000000E-29
_AMU2AU=  1822.888390000000    
_KCAL= 0.1593601117815568E-02
_KCAL/MOL= 0.1593601117815568E-02
_KELVIN2006= 0.3166828861084835E-05
_KELVIN= 0.3166814820820034E-05
_JOULE= 0.4359748200000000E-17
_HERTZ2006= 0.1519829850815779E-15
_HERTZ= 0.1519829846011223E-15
_HZ2006= 0.1519829850815779E-15
_HZ= 0.1519829846011223E-15
_JPCAL=  4.184000000000000    
_PLANCK= 0.6626075540000000E-33
_TOA2006= 0.5291772490000000    
_TOA= 0.5291772090000000    
_TOANG2006= 0.5291772490000000    
_TOANG= 0.5291772090000000    
_TORAD= 0.1745329251994330E-01
_TOCM=  219474.6306700000    
_TODEBYE=  2.541580000000000    
_TOEV2006=  27.21139610000000    
_TOE= 0.4803242000000000E-09
_TOEV=  27.21138390000000    
_TOHERTZ2006=  6579683899900000.    
_TOHERTZ=  6579683920700000.    
_TOHZ2006=  6579683899900000.    
_TOHZ=  6579683920700000.    
_TOK2006=  315773.3000000000    
_TOK=  315774.7000000000    
_TOKCAL=  627.5096000000000    
_TOKELVIN2006=  315773.3000000000    
_TOKELVIN=  315774.7000000000    
_TOKJ=  2625.500000000000    
_TOKJOULE=  2625.500000000000    
_TOKG= 0.1660565586000000E-26
_ANG2006=  1.889725988578923    
_ANG=  1.889726131421507    
_ANGSTROM2006=  1.889725988578923    
_ANGSTROM=  1.889726131421507    
_RPAREF=  0.000000000000000    
_RPADISS=  0.000000000000000    
_IGNORE_UNDEF=  2.000000000000000    
_STRICTCHECK=  0.000000000000000    
_SEW_ONEEL=  0.000000000000000    
_CPPDONE=FALSE
_DKROLL_DONE=  0.000000000000000    
_FOCKDONE=TRUE
_GRADONE=FALSE
_HESSDONE=FALSE
_INTDONE=TRUE
_SCFDONE=TRUE
_MODUL_BLOCK=FALSE
_MODUL_CUDA=FALSE
_MODUL_SLATER=FALSE
_MODUL_MRCC=FALSE
_MODUL_NBO6=FALSE
_MODUL_NECI=TRUE
_MODUL_AIMS=TRUE
_MRCC_EXEC=
_FITC_AO_SAVED=FALSE
_FITC_MO_SAVED=FALSE
_SHARED_FS=TRUE
_LSTYP=SEWARD
_INTYP=INTS
_GEOMTYP=ZMAT
_GRADTYP=ALASKA
_DIRECT=FALSE
_DKHO= -1.000000000000000    
_SYNCM=  0.000000000000000    
_BASIS=USERDEF
_ZORIENT=  1.000000000000000    
_NELEC=  58.00000000000000    
!SPIN=  0.000000000000000    
_QSDSTEP=  0.000000000000000    
_QSDIRC=  0.000000000000000    
_PROGRAM=MATROP
_CPUSTEP=  1.699999999999989    
_SYSSTEP= 0.2999999999999758E-01
_WALLSTEP= 0.2500000000000000    
!DFSCF=  0.000000000000000    
!SCSGRD=  0.000000000000000    
_BASINP=  610.0000000000000    
_CPUTOT=  270.2400000000000    
_DFTEXFAC=  1.000000000000000    
_DMX=  0.000000000000000    
_DMY=  0.000000000000000    
_DMZ=  0.000000000000000    
_DMX_SCF= 0.7004600213495662    
_DMY_SCF= -1.075299247784766    
_DMZ_SCF=  0.000000000000000    
_EHOMO=-0.3229767027469017    
_ELUMO= 0.1116440973270138    
_ENUC=  360.8014524679945    
_EPS1= -20.62856035698987    
_EPS2=-0.6791348876799012    
_GRADEXFAC=  9999.000000000000    
_GRADMETHOD=TRUE
_NMRMETHOD=  0.000000000000000    
!GRID_FREEZE= -1.000000000000000    
_ITERATIONS=  0.000000000000000    
_LASTNELEC=  10.00000000000000    
_LASTSPIN=  2.000000000000000    
_LASTSYM=  1.000000000000000    
_MPP_PROG=  0.000000000000000    
_NPROC_MPP=  1.000000000000000    
_NPROC_MPPX=  1.000000000000000    
_NPROC_SMP=  16.00000000000000    
_NUMSTEP=  0.000000000000000    
_ORBITAL=  2141.200000000000    
_PI=  3.141592653589793    
_SEIG_MIN= 0.1419611248758777E-02
_SEWPROP=TRUE
_STATUS=  0.000000000000000    
_SYSTOT=  21.40000000000000    
_VERSION=  2012001.000000000    
_WALLTOT=  150.6900000000000    
_DATE=24-Jan-19
_LASTORB=MCSCF
_MACHINE=Linux-4.9.0-8-amd64/nympha18.meta.zcu.cz(x86_64) (16 PROC) 64 bit serial version
_OUTPUT=/auto/brno2/home/masiz4am/git/UKRmol-in/tests/suite/Cs_target_CAS3/molpro.xml
_PGROUP=Cs
_TIME=16:25:21
_LIBMOL=/afs/ics.muni.cz/software/molpro-2012.1/molprop_2012_1_Linux_x86_64_i8/lib/
!VIBCNT=  0.000000000000000    
!RGHFCNT=  0.000000000000000    
!SURFREC=  0.000000000000000    
!POLYREC=  0.000000000000000    
!DIPREC=  0.000000000000000    
!VSCFREC=  0.000000000000000    
!VCIREC=  0.000000000000000    
!PVCIREC=  0.000000000000000    
!VMP2REC=  0.000000000000000    
!VMCSCFREC=  0.000000000000000    
!VMRCIREC=  0.000000000000000    
!VIBINFO=  0.000000000000000    
!GAREC=  0.000000000000000    
!SCFORB=  21002.00000000000    
!MCORB=  21412.00000000000    
!NEWMOL= -1.000000000000000    
!NEWSYM= -1.000000000000000    
_SLFILES=slscratch
_NGSSTO=  9.000000000000000    
_SIN=SIN
_COS=COS
_TAN=TAN
_ACOS=ACOS
_ASIN=ASIN
_ATAN=ATAN
_COSH=COSH
_SINH=SINH
_TANH=TANH
_ABS=ABS
_MOD=MOD
_ERF=ERF
_REFC=REFC
_ERFC=ERFC
_HYPOT=HYPOT
_J0=J0
_J1=J1
_JN=JN
_GAMMA=GAMMA
_LGAMMA=LGAMMA
_Y0=Y0
_Y1=Y1
_YN=YN
_EXP=EXP
_LOG=LOG
_LOG10=LOG10
_SQRT=SQRT
_INT=INT
_NINT=NINT
_MAX=MAX
_MIN=MIN
_COSMO=  0.000000000000000    
_COSMOIT=  0.000000000000000    
_COSMOES=  0.000000000000000    
_COSMOEDS=  0.000000000000000    
_COSMOEC=  0.000000000000000    
_COSMOEDCORR=  0.000000000000000    
_FEPSI=  1.000000000000000    
_SL_IsMM=  0.000000000000000    
_SL_NSYM=  2.000000000000000    
_SL_System_BitSw=  0.000000000000000    
_SL_Unique_atoms=  0.000000000000000    
_SL_GRAD=  0.000000000000000    
_SL_MAXUPD_Hess=  5.000000000000000    
_SL_N_PRINT_COD=  5.000000000000000    
_SL_PRINT_CODES=  0.000000000000000    
_SL_BasType=  0.000000000000000    
_SL_Energy_Pred=  0.000000000000000    
_SL_New_Coords=  0.000000000000000    
_SL_Total_Nuclea=  0.000000000000000    
_SL_Highest_Mltp=  0.000000000000000    
_SL_Ref_Geom=  0.000000000000000    
_SL_Symmetry_ope=  1.000000000000000    
_SL_agrad=  0.000000000000000    
_SL_GrdMax=  0.000000000000000    
_SL_GrdNorm=  0.000000000000000    
_SL_GrdRMS=  0.000000000000000    
!LATTICE= -1.000000000000000    
!NEWLATTICE=  0.000000000000000    
!LATGRAD_VAR=FALSE
!SEW_LATTICE=  1.000000000000000    
!LOCAL=  0.000000000000000    
!SAVEDOM= -1.000000000000000    
!RESTDOM= -1.000000000000000    
!SAVEDOM_HF= -1.000000000000000    
!RESTDOM_HF= -1.000000000000000    
!HESSREC=  0.000000000000000    
!FREQREC=  0.000000000000000    
!NMODREC=  0.000000000000000    
!GTASKS=  0.000000000000000    
!HTASKS=  0.000000000000000    
!THRCHG= 0.1000000000000000    
!DEBUG= -1.000000000000000    
!CFIT_CPHF=  0.000000000000000    
!RDOMAUX_CPHF=  3.000000000000000    
!THRAO_CPHF= 0.1000000000000000E-09
!THRMO_CPHF= 0.1000000000000000E-08
!THROV_CPHF= 0.1000000000000000E-11
!THRSW_CPHF= 0.1000000000000000E-09
!THRPROD_CPHF= 0.1000000000000000E-08
!THRAOPR_CPHF= 0.1000000000000000E-11
!CFIT_SCFGRD=  0.000000000000000    
!RDOMAUX_SCFGRD=  5.000000000000000    
!THRAO_SCFGRD= 0.1000000000000000E-09
!THRMO_SCFGRD= 0.1000000000000000E-08
!THROV_SCFGRD= 0.1000000000000000E-11
!THRSW_SCFGRD= 0.1000000000000000E-09
!THRPROD_SCFGRD= 0.1000000000000000E-08
!THRAOPR_SCFGRD= 0.1000000000000000E-11
!LOCFIT_SCF=  0.000000000000000    
!LOCFIT_MP2= -1.000000000000000    
_RIDOM=  0.000000000000000    
!CC2_METHOD=  0.000000000000000    
_BASIS2006=FALSE
_SVDDEL= -1.000000000000000    
_SVDDELA= -1.000000000000000    
_SVDDELP= -1.000000000000000    
_SVDDELF= -1.000000000000000    
_SVDDELS= -1.000000000000000    
_SVDDEL_ABS= -1.000000000000000    
_SVDDELA_ABS= -1.000000000000000    
_SVDDELP_ABS= -1.000000000000000    
_SVDDELF_ABS= -1.000000000000000    
_SVDDELS_ABS= -1.000000000000000    
_MAXBASIS=  0.000000000000000    
!OPT_CONICAL=  0.000000000000000    
!CLEARSP_JGRID=  0.000000000000000    
_4EXT_NDISKS=  1.000000000000000    
!ZMP=  0.000000000000000    
_MAXIT_ZMP=  500.0000000000000    
_MAXDIS_ZMP=  100.0000000000000    
_ACCU_ZMP=  14.00000000000000    
_SHIFTA_ZMP= -100.0000000000000    
!EMBEDFLAG=  1.000000000000000    
!EMBED=FALSE
!EMBED_F12=FALSE
!EMBEDNUC=  0.000000000000000    
_EMBEDENERGY=  0.000000000000000    
_KSPACETIME=  0.000000000000000    
_RSPACETIME=  0.000000000000000    
!EMBED_DFC=FALSE
!NUM_VOIDS=  0.000000000000000    
_IBODY=  0.000000000000000    
_EMBE_TOTAL=  0.000000000000000    
_EMBE_HF=  0.000000000000000    
_EMBE_CORR=  0.000000000000000    
!EDFT=  0.000000000000000    
_IFASTLATGRAD=  0.000000000000000    
_SINDEX=  0.000000000000000    
M_NAME=CASSCF(10,8)
M_CLOSED=  22.00000000000000    
M_OCC=  25.00000000000000    
GX1= 0.7342000000000000    
GY1=  2.390300000000000    
GZ1=  0.000000000000000    
GX2= -2.003500000000000    
GY2=  2.328300000000000    
GZ2=  0.000000000000000    
GX3=  1.878600000000000    
GY3=  0.000000000000000    
GZ3=  0.000000000000000    
GX4= -3.216300000000000    
GY4= 0.1009000000000000    
GZ4=  0.000000000000000    
GX5=  2.017300000000000    
GY5=  4.309300000000000    
GZ5=  0.000000000000000    
GX6= -1.929400000000000    
GY6= -2.151500000000000    
GZ6=  0.000000000000000    
GX7= 0.6820000000000001    
GY7= -2.309400000000000    
GZ7=  0.000000000000000    
GX8=  1.789900000000000    
GY8= -4.331100000000000    
GZ8=  0.000000000000000    
GX9= -2.981200000000000    
GY9=  4.109200000000000    
GZ9=  0.000000000000000    
GX10=  3.780800000000000    
GY10=-0.7290000000000001E-01
GZ10=  0.000000000000000    
GX11= -5.251700000000000    
GY11=-0.4140000000000000E-01
GZ11=  0.000000000000000    
GX12=  2.829700000000000    
GY12= -3.821000000000000    
GZ12=  0.000000000000000    
_TRDMX= -1.155852698389529    
_TRDMY= 0.6218085392618005    
_TRDMZ=  0.000000000000000    
_QMXX=  10.24348307671206    
_TRQMXX= 0.5658585513314472    
_QMYY= -11.06366989026640    
_TRQMYY=-0.1613111067816910    
_QMZZ= 0.8201868135542441    
_TRQMZZ=-0.4045474445497579    
_QMXY= -12.94294110511400    
_TRQMXY=  1.944861043828646    
_QMXZ=  0.000000000000000    
_TRQMXZ=  0.000000000000000    
_QMYZ=  0.000000000000000    
_TRQMYZ=  0.000000000000000    
_QMRR= -103.0645164662394    
_TRQMRR= 0.9682910241153477    
[Atoms] Angs
C     1    6         0.3885219068        1.2648922827        0.0000000000
C     2    6        -1.0602065382        1.2320832957        0.0000000000
N     3    7         0.9941123048        0.0000000000        0.0000000000
C     4    6        -1.7019926573        0.0533939804        0.0000000000
O     5    8         1.0675091837        2.2803833467        0.0000000000
N     6    7        -1.0209945070       -1.1385247652        0.0000000000
C     7    6         0.3608988565       -1.2220818465        0.0000000000
O     8    8         0.9471742864       -2.2919194099        0.0000000000
H     9    1        -1.5775830955        2.1744949872        0.0000000000
H    10    1         2.0007131918       -0.0385770185        0.0000000000
H    11    1        -2.7790799485       -0.0219079365        0.0000000000
H    12    1         1.4974127483       -2.0219861156        0.0000000000
[GTO]
  1 0
 s    8  1.00
  0.6665000000D+04  0.6915839628D-03
  0.1000000000D+04  0.5325796153D-02
  0.2280000000D+03  0.2706072104D-01
  0.6471000000D+02  0.1016568461D+00
  0.2106000000D+02  0.2745748236D+00
  0.7495000000D+01  0.4482943189D+00
  0.2797000000D+01  0.2849026107D+00
  0.5215000000D+00  0.1519485921D-01
 s    8  1.00
  0.6665000000D+04 -0.2932696527D-03
  0.1000000000D+04 -0.2318035474D-02
  0.2280000000D+03 -0.1149978604D-01
  0.6471000000D+02 -0.4682672701D-01
  0.2106000000D+02 -0.1284661688D+00
  0.7495000000D+01 -0.3012662725D+00
  0.2797000000D+01 -0.2556307023D+00
  0.5215000000D+00  0.1093793361D+01
 s    1  1.00
  0.1596000000D+00  0.1000000000D+01
 p    3  1.00
  0.9439000000D+01  0.5697925159D-01
  0.2002000000D+01  0.3132072115D+00
  0.5456000000D+00  0.7603767417D+00
 p    1  1.00
  0.1517000000D+00  0.1000000000D+01
 d    1  1.00
  0.5500000000D+00  0.1000000000D+01
  
  2 0
 s    8  1.00
  0.6665000000D+04  0.6915839628D-03
  0.1000000000D+04  0.5325796153D-02
  0.2280000000D+03  0.2706072104D-01
  0.6471000000D+02  0.1016568461D+00
  0.2106000000D+02  0.2745748236D+00
  0.7495000000D+01  0.4482943189D+00
  0.2797000000D+01  0.2849026107D+00
  0.5215000000D+00  0.1519485921D-01
 s    8  1.00
  0.6665000000D+04 -0.2932696527D-03
  0.1000000000D+04 -0.2318035474D-02
  0.2280000000D+03 -0.1149978604D-01
  0.6471000000D+02 -0.4682672701D-01
  0.2106000000D+02 -0.1284661688D+00
  0.7495000000D+01 -0.3012662725D+00
  0.2797000000D+01 -0.2556307023D+00
  0.5215000000D+00  0.1093793361D+01
 s    1  1.00
  0.1596000000D+00  0.1000000000D+01
 p    3  1.00
  0.9439000000D+01  0.5697925159D-01
  0.2002000000D+01  0.3132072115D+00
  0.5456000000D+00  0.7603767417D+00
 p    1  1.00
  0.1517000000D+00  0.1000000000D+01
 d    1  1.00
  0.5500000000D+00  0.1000000000D+01
  
  3 0
 s    8  1.00
  0.9046000000D+04  0.6996174134D-03
  0.1357000000D+04  0.5386054630D-02
  0.3093000000D+03  0.2739102119D-01
  0.8773000000D+02  0.1031505920D+00
  0.2856000000D+02  0.2785706633D+00
  0.1021000000D+02  0.4482948495D+00
  0.3838000000D+01  0.2780859284D+00
  0.7466000000D+00  0.1543156123D-01
 s    8  1.00
  0.9046000000D+04 -0.3049900960D-03
  0.1357000000D+04 -0.2408026379D-02
  0.3093000000D+03 -0.1194444873D-01
  0.8773000000D+02 -0.4892599291D-01
  0.2856000000D+02 -0.1344727247D+00
  0.1021000000D+02 -0.3151125777D+00
  0.3838000000D+01 -0.2428578325D+00
  0.7466000000D+00  0.1094382207D+01
 s    1  1.00
  0.2248000000D+00  0.1000000000D+01
 p    3  1.00
  0.1355000000D+02  0.5890567677D-01
  0.2917000000D+01  0.3204611067D+00
  0.7973000000D+00  0.7530420618D+00
 p    1  1.00
  0.2185000000D+00  0.1000000000D+01
 d    1  1.00
  0.8170000000D+00  0.1000000000D+01
  
  4 0
 s    8  1.00
  0.6665000000D+04  0.6915839628D-03
  0.1000000000D+04  0.5325796153D-02
  0.2280000000D+03  0.2706072104D-01
  0.6471000000D+02  0.1016568461D+00
  0.2106000000D+02  0.2745748236D+00
  0.7495000000D+01  0.4482943189D+00
  0.2797000000D+01  0.2849026107D+00
  0.5215000000D+00  0.1519485921D-01
 s    8  1.00
  0.6665000000D+04 -0.2932696527D-03
  0.1000000000D+04 -0.2318035474D-02
  0.2280000000D+03 -0.1149978604D-01
  0.6471000000D+02 -0.4682672701D-01
  0.2106000000D+02 -0.1284661688D+00
  0.7495000000D+01 -0.3012662725D+00
  0.2797000000D+01 -0.2556307023D+00
  0.5215000000D+00  0.1093793361D+01
 s    1  1.00
  0.1596000000D+00  0.1000000000D+01
 p    3  1.00
  0.9439000000D+01  0.5697925159D-01
  0.2002000000D+01  0.3132072115D+00
  0.5456000000D+00  0.7603767417D+00
 p    1  1.00
  0.1517000000D+00  0.1000000000D+01
 d    1  1.00
  0.5500000000D+00  0.1000000000D+01
  
  5 0
 s    8  1.00
  0.1172000000D+05  0.7096459465D-03
  0.1759000000D+04  0.5467272292D-02
  0.4008000000D+03  0.2782311861D-01
  0.1137000000D+03  0.1047477397D+00
  0.3703000000D+02  0.2829208464D+00
  0.1327000000D+02  0.4484952387D+00
  0.5025000000D+01  0.2708168852D+00
  0.1013000000D+01  0.1545029161D-01
 s    8  1.00
  0.1172000000D+05 -0.3144434117D-03
  0.1759000000D+04 -0.2482137681D-02
  0.4008000000D+03 -0.1231635538D-01
  0.1137000000D+03 -0.5053891734D-01
  0.3703000000D+02 -0.1393849033D+00
  0.1327000000D+02 -0.3250774948D+00
  0.5025000000D+01 -0.2298483076D+00
  0.1013000000D+01  0.1095379347D+01
 s    1  1.00
  0.3023000000D+00  0.1000000000D+01
 p    3  1.00
  0.1770000000D+02  0.6267916628D-01
  0.3854000000D+01  0.3335365659D+00
  0.1046000000D+01  0.7412396416D+00
 p    1  1.00
  0.2753000000D+00  0.1000000000D+01
 d    1  1.00
  0.1185000000D+01  0.1000000000D+01
  
  6 0
 s    8  1.00
  0.9046000000D+04  0.6996174134D-03
  0.1357000000D+04  0.5386054630D-02
  0.3093000000D+03  0.2739102119D-01
  0.8773000000D+02  0.1031505920D+00
  0.2856000000D+02  0.2785706633D+00
  0.1021000000D+02  0.4482948495D+00
  0.3838000000D+01  0.2780859284D+00
  0.7466000000D+00  0.1543156123D-01
 s    8  1.00
  0.9046000000D+04 -0.3049900960D-03
  0.1357000000D+04 -0.2408026379D-02
  0.3093000000D+03 -0.1194444873D-01
  0.8773000000D+02 -0.4892599291D-01
  0.2856000000D+02 -0.1344727247D+00
  0.1021000000D+02 -0.3151125777D+00
  0.3838000000D+01 -0.2428578325D+00
  0.7466000000D+00  0.1094382207D+01
 s    1  1.00
  0.2248000000D+00  0.1000000000D+01
 p    3  1.00
  0.1355000000D+02  0.5890567677D-01
  0.2917000000D+01  0.3204611067D+00
  0.7973000000D+00  0.7530420618D+00
 p    1  1.00
  0.2185000000D+00  0.1000000000D+01
 d    1  1.00
  0.8170000000D+00  0.1000000000D+01
  
  7 0
 s    8  1.00
  0.6665000000D+04  0.6915839628D-03
  0.1000000000D+04  0.5325796153D-02
  0.2280000000D+03  0.2706072104D-01
  0.6471000000D+02  0.1016568461D+00
  0.2106000000D+02  0.2745748236D+00
  0.7495000000D+01  0.4482943189D+00
  0.2797000000D+01  0.2849026107D+00
  0.5215000000D+00  0.1519485921D-01
 s    8  1.00
  0.6665000000D+04 -0.2932696527D-03
  0.1000000000D+04 -0.2318035474D-02
  0.2280000000D+03 -0.1149978604D-01
  0.6471000000D+02 -0.4682672701D-01
  0.2106000000D+02 -0.1284661688D+00
  0.7495000000D+01 -0.3012662725D+00
  0.2797000000D+01 -0.2556307023D+00
  0.5215000000D+00  0.1093793361D+01
 s    1  1.00
  0.1596000000D+00  0.1000000000D+01
 p    3  1.00
  0.9439000000D+01  0.5697925159D-01
  0.2002000000D+01  0.3132072115D+00
  0.5456000000D+00  0.7603767417D+00
 p    1  1.00
  0.1517000000D+00  0.1000000000D+01
 d    1  1.00
  0.5500000000D+00  0.1000000000D+01
  
  8 0
 s    8  1.00
  0.1172000000D+05  0.7096459465D-03
  0.1759000000D+04  0.5467272292D-02
  0.4008000000D+03  0.2782311861D-01
  0.1137000000D+03  0.1047477397D+00
  0.3703000000D+02  0.2829208464D+00
  0.1327000000D+02  0.4484952387D+00
  0.5025000000D+01  0.2708168852D+00
  0.1013000000D+01  0.1545029161D-01
 s    8  1.00
  0.1172000000D+05 -0.3144434117D-03
  0.1759000000D+04 -0.2482137681D-02
  0.4008000000D+03 -0.1231635538D-01
  0.1137000000D+03 -0.5053891734D-01
  0.3703000000D+02 -0.1393849033D+00
  0.1327000000D+02 -0.3250774948D+00
  0.5025000000D+01 -0.2298483076D+00
  0.1013000000D+01  0.1095379347D+01
 s    1  1.00
  0.3023000000D+00  0.1000000000D+01
 p    3  1.00
  0.1770000000D+02  0.6267916628D-01
  0.3854000000D+01  0.3335365659D+00
  0.1046000000D+01  0.7412396416D+00
 p    1  1.00
  0.2753000000D+00  0.1000000000D+01
 d    1  1.00
  0.1185000000D+01  0.1000000000D+01
  
  9 0
 s    3  1.00
  0.1301000000D+02  0.3349872639D-01
  0.1962000000D+01  0.2348008012D+00
  0.4446000000D+00  0.8136829579D+00
 s    1  1.00
  0.1220000000D+00  0.1000000000D+01
 p    1  1.00
  0.7270000000D+00  0.1000000000D+01
  
 10 0
 s    3  1.00
  0.1301000000D+02  0.3349872639D-01
  0.1962000000D+01  0.2348008012D+00
  0.4446000000D+00  0.8136829579D+00
 s    1  1.00
  0.1220000000D+00  0.1000000000D+01
 p    1  1.00
  0.7270000000D+00  0.1000000000D+01
  
 11 0
 s    3  1.00
  0.1301000000D+02  0.3349872639D-01
  0.1962000000D+01  0.2348008012D+00
  0.4446000000D+00  0.8136829579D+00
 s    1  1.00
  0.1220000000D+00  0.1000000000D+01
 p    1  1.00
  0.7270000000D+00  0.1000000000D+01
  
 12 0
 s    3  1.00
  0.1301000000D+02  0.3349872639D-01
  0.1962000000D+01  0.2348008012D+00
  0.4446000000D+00  0.8136829579D+00
 s    1  1.00
  0.1220000000D+00  0.1000000000D+01
 p    1  1.00
  0.7270000000D+00  0.1000000000D+01
 
 
[MO]
 Sym=      1.1
 Ene=     -20.6286
 Spin= Alpha
 Occup=    2.000000
1 -0.000103156138071
2 -0.000191078284518
3 -0.000054540128061
4 -0.000013993279360
5 0.000070635562770
6 0.0
7 0.000102687487867
8 -0.000201961554379
9 0.0
10 0.000049711596021
11 -0.000028207295699
12 -0.000021504300322
13 -0.000068287707882
14 0.0
15 0.0
16 -0.000051950387179
17 -0.000100607140486
18 -0.000073865317687
19 -0.000003590920563
20 0.000031714982774
21 0.0
22 0.000082986755841
23 0.000062033951376
24 0.0
25 0.000006425781561
26 -0.000000249730849
27 -0.000006176050713
28 0.000000816235928
29 0.0
30 0.0
31 -0.000089321596385
32 -0.000178215104727
33 0.000624535060562
34 0.000068247442776
35 0.000055985247809
36 0.0
37 -0.000941478014511
38 0.000156639781349
39 0.0
40 0.000177951643078
41 -0.000151127109776
42 -0.000026824533303
43 0.000054949604018
44 0.0
45 0.0
46 -0.000128641083758
47 -0.000232409971549
48 0.000329681156920
49 -0.000064774324929
50 0.000039456106427
51 0.0
52 0.000540451183922
53 -0.000020812944040
54 0.0
55 -0.000017218432979
56 0.000073275811676
57 -0.000056057378697
58 -0.000003108322139
59 0.0
60 0.0
61 -0.000008830133099
62 -0.000012879612697
63 0.000115079074327
64 -0.000007449576759
65 -0.000015026646804
66 0.0
67 -0.000060745701353
68 0.000004269423719
69 0.0
70 0.000006154659467
71 -0.000004095335269
72 -0.000002059324199
73 0.000015337239898
74 0.0
75 0.0
76 -0.000119879791994
77 -0.000237547903604
78 0.000772788537924
79 -0.000066593227472
80 0.000003821252222
81 0.0
82 0.000225308276365
83 0.000534378118618
84 0.0
85 -0.000036549573419
86 0.000048533949017
87 -0.000011984375599
88 0.000177317660274
89 0.0
90 0.0
91 0.000271604954534
92 0.000425454586000
93 0.001662374613108
94 0.000090910806710
95 -0.000118651681086
96 0.0
97 0.002000298628903
98 -0.003019939155091
99 0.0
100 0.000254690804160
101 -0.000358080099595
102 0.000103389295436
103 0.000378605640771
104 0.0
105 0.0
106 1.00287935075156
107 0.005485882569150
108 -0.004679801758712
109 0.002238865098502
110 0.002939640497714
111 0.0
112 0.001454298638500
113 -0.001363519102778
114 0.0
115 0.000650495449425
116 -0.000158907353738
117 -0.000491588095686
118 0.000756790620405
119 0.0
120 0.0
121 0.000005872077619
122 0.000051166820256
123 0.000004778436287
124 -0.000015567019814
125 0.0
126 0.000127434920030
127 0.000117569144770
128 0.000056954460037
129 0.000026430447622
130 0.0
131 0.000062435560828
132 0.000261446054602
133 0.000013791368700
134 0.000022233240614
135 0.0
136 -0.004306292121225
137 -0.000540189449212
138 0.002133232192215
139 0.000840273418191
140 0.0
 Sym=      2.1
 Ene=     -20.4926
 Spin= Alpha
 Occup=    2.000000
1 0.000306527400023
2 0.000689951190030
3 0.001116877274105
4 0.000203470297114
5 0.000331834215749
6 0.0
7 0.001792309134376
8 0.003658884450726
9 0.0
10 0.000111631419892
11 -0.000338262009566
12 0.000226630589674
13 -0.000605121962817
14 0.0
15 0.0
16 -0.000080067942028
17 -0.000181261856883
18 0.001739722350836
19 -0.000107278800580
20 0.000058186479949
21 0.0
22 -0.000135513705667
23 -0.001844100577273
24 0.0
25 -0.000078272454329
26 0.000192995709125
27 -0.000114723254796
28 -0.000418488103709
29 0.0
30 0.0
31 -0.000130523195893
32 -0.000289555313715
33 0.001017174138462
34 0.000091060975567
35 -0.000149539663046
36 0.0
37 -0.000825661639079
38 0.000217698203231
39 0.0
40 0.000200466500809
41 -0.000164343103466
42 -0.000036123397344
43 -0.000051451766455
44 0.0
45 0.0
46 -0.000006090184127
47 0.000005087045060
48 -0.001251916715745
49 -0.000014692134325
50 0.000009854992571
51 0.0
52 0.000094866496855
53 -0.000549087360454
54 0.0
55 -0.000134221072891
56 0.000166547488913
57 -0.000032326416022
58 -0.000045397753832
59 0.0
60 0.0
61 1.00143353277587
62 0.002329567121251
63 -0.006911423872974
64 -0.001195322478961
65 -0.001919297478084
66 0.0
67 0.000874995054085
68 0.001194266928193
69 0.0
70 0.000088022261923
71 0.000153995355901
72 -0.000242017617825
73 0.000078206111745
74 0.0
75 0.0
76 0.000004876875680
77 -0.000000375035672
78 -0.000297903694821
79 -0.000011474465823
80 0.000007920643196
81 0.0
82 0.000066267074741
83 -0.000129234481308
84 0.0
85 -0.000030171438854
86 0.000011428127249
87 0.000018743311605
88 0.000042865999218
89 0.0
90 0.0
91 -0.000114564279131
92 -0.000189421919368
93 0.000156245379705
94 0.000008981374602
95 -0.000017285988169
96 0.0
97 0.000011208160486
98 0.000486414053533
99 0.0
100 0.000106006722913
101 -0.000065849432460
102 -0.000040157290454
103 0.000084226314114
104 0.0
105 0.0
106 -0.000007274253104
107 -0.000017138766783
108 0.000154055432541
109 -0.000001389915298
110 0.000003955068601
111 0.0
112 -0.000174983717226
113 0.000030544172452
114 0.0
115 -0.000010733013522
116 0.000007677260745
117 0.000003055752777
118 -0.000026947819274
119 0.0
120 0.0
121 -0.000133217935211
122 0.000360559691742
123 -0.000059318911113
124 0.000186141504721
125 0.0
126 0.000033562263036
127 -0.000004591518521
128 0.000088575933991
129 -0.000063333502502
130 0.0
131 0.000154679504403
132 0.000112607670678
133 0.000051775175523
134 0.000010513919418
135 0.0
136 0.000039533795978
137 0.000189535066896
138 0.000012119529278
139 -0.000013434738654
140 0.0
 Sym=      3.1
 Ene=     -15.6457
 Spin= Alpha
 Occup=    2.000000
1 0.000051139238729
2 0.000032693829575
3 0.002365493177965
4 0.000050082167888
5 -0.000060683605867
6 0.0
7 0.001036937044457
8 -0.002997327209090
9 0.0
10 0.000012288288698
11 -0.000022292902686
12 0.000010004613988
13 0.000249652816235
14 0.0
15 0.0
16 -0.000000030500568
17 -0.000007539549654
18 -0.001377843903092
19 -0.000086122496934
20 0.000001932589401
21 0.0
22 0.000718374344758
23 0.002172517937278
24 0.0
25 0.000006068884287
26 0.000050437896989
27 -0.000056506781276
28 0.000058275592001
29 0.0
30 0.0
31 1.00203426195133
32 0.003702790887199
33 -0.010102266749922
34 0.000029736388532
35 -0.000337093106332
36 0.0
37 0.001893364497073
38 -0.000068108157036
39 0.0
40 0.000171538169761
41 -0.000094553301343
42 -0.000076984868419
43 0.000009415378338
44 0.0
45 0.0
46 -0.000057241516987
47 -0.000092682357164
48 0.002635002911586
49 -0.000005124799990
50 -0.000028325951176
51 0.0
52 0.000621069104445
53 0.000762375114274
54 0.0
55 0.000064887980084
56 0.000016304807199
57 -0.000081192787283
58 0.000004661421867
59 0.0
60 0.0
61 -0.000083376660890
62 -0.000161882765691
63 0.000451413653244
64 0.000032314441820
65 -0.000022543288537
66 0.0
67 -0.000386455409318
68 0.000365281391038
69 0.0
70 0.000065023727321
71 -0.000064733597925
72 -0.000000290129395
73 -0.000014912917240
74 0.0
75 0.0
76 -0.000453833131469
77 -0.000086312858527
78 -0.000245816682937
79 -0.000083220691031
80 0.000028702752733
81 0.0
82 0.000101844394942
83 -0.000762776048966
84 0.0
85 0.000001813673910
86 0.000038743463054
87 -0.000040557136965
88 -0.000064647892526
89 0.0
90 0.0
91 0.000088702029557
92 0.000069466167307
93 0.002503742814421
94 0.000057675618927
95 0.000086353899312
96 0.0
97 0.000974361809892
98 0.002224895557604
99 0.0
100 0.000057486310484
101 -0.000125455221672
102 0.000067968911188
103 -0.000392278306707
104 0.0
105 0.0
106 -0.000035843536093
107 -0.000096773798817
108 -0.000049211535415
109 0.000038812775916
110 -0.000057613129303
111 0.0
112 -0.000577044815588
113 -0.000424668863432
114 0.0
115 0.000049081650753
116 -0.000075472000962
117 0.000026390350209
118 -0.000042486862060
119 0.0
120 0.0
121 -0.000167268101259
122 -0.000363925789146
123 -0.000048926244810
124 -0.000063242105047
125 0.0
126 -0.000208175812936
127 -0.000070529068118
128 0.000586700354599
129 -0.000016218150650
130 0.0
131 -0.000120718059149
132 0.000094877293578
133 -0.000039827065235
134 -0.000038752698967
135 0.0
136 0.000233663131191
137 0.000116224032077
138 0.000049569300916
139 -0.000013459486834
140 0.0
 Sym=      4.1
 Ene=     -15.6221
 Spin= Alpha
 Occup=    2.000000
1 -0.000038072817879
2 -0.000070301397885
3 0.002214562630758
4 0.000040870081973
5 -0.000021231035359
6 0.0
7 -0.001056004545620
8 -0.000047040769711
9 0.0
10 0.000033163945599
11 0.000012503363235
12 -0.000045667308834
13 0.000039532281288
14 0.0
15 0.0
16 0.000063962658728
17 0.000102312382616
18 -0.002792360489192
19 0.000022282734294
20 0.000107610056783
21 0.0
22 -0.001752346136092
23 0.001188121717745
24 0.0
25 0.000162631905240
26 -0.000139411902797
27 -0.000023220002443
28 0.000036746444912
29 0.0
30 0.0
31 0.000336136903881
32 -0.000157707146814
33 0.000063088958028
34 0.000037660506423
35 0.000099175553521
36 0.0
37 0.000684390268096
38 -0.000551626433292
39 0.0
40 0.000020735840891
41 0.000071048064174
42 -0.000091783905065
43 -0.000074207105149
44 0.0
45 0.0
46 0.000088430576417
47 0.000055681195106
48 0.003410372871037
49 -0.000014611019641
50 -0.000026174277379
51 0.0
52 0.002596604851787
53 -0.000982869557633
54 0.0
55 0.000346515813510
56 -0.000377268153436
57 0.000030752339927
58 0.000341062032510
59 0.0
60 0.0
61 -0.000001338174451
62 -0.000005392615027
63 -0.000108815991027
64 -0.000009661609461
65 0.000028080767909
66 0.0
67 0.000187953217923
68 -0.000009855020867
69 0.0
70 -0.000003979572230
71 0.000003022574101
72 0.000000956998129
73 -0.000016746280849
74 0.0
75 0.0
76 1.00189646966696
77 0.003176097180040
78 -0.010311654620076
79 0.000840474466324
80 0.001167587091521
81 0.0
82 -0.001702731044865
83 -0.002032726878219
84 0.0
85 0.000102905396740
86 -0.000034470278092
87 -0.000068435118648
88 -0.000188018163613
89 0.0
90 0.0
91 0.000137964560674
92 0.000129508755287
93 0.002226275920926
94 -0.000106659503218
95 0.000044672729443
96 0.0
97 -0.003149372857202
98 0.000759143319979
99 0.0
100 -0.000445697845627
101 0.000301586385091
102 0.000144111460536
103 -0.000059451538611
104 0.0
105 0.0
106 -0.000056927009225
107 -0.000126454146175
108 0.000588691157505
109 0.000089782595343
110 -0.000112174802366
111 0.0
112 0.000458003536771
113 0.000297886348550
114 0.0
115 0.000020409599181
116 0.000001284959223
117 -0.000021694558405
118 0.000041595922973
119 0.0
120 0.0
121 -0.000059469258487
122 -0.000506088506313
123 0.000095339213457
124 -0.000009174496269
125 0.0
126 -0.000174599608992
127 0.000116241944860
128 -0.000004565927270
129 0.000002728717766
130 0.0
131 -0.000134622391391
132 0.000638325349778
133 -0.000188145238956
134 0.000142821262324
135 0.0
136 -0.000094084375780
137 0.000509462229660
138 -0.000033719702553
139 0.000244482452109
140 0.0
 Sym=      5.1
 Ene=     -11.3876
 Spin= Alpha
 Occup=    2.000000
1 -0.000326540012008
2 -0.000429767114154
3 0.002876038852259
4 -0.000019014872704
5 0.000033282342951
6 0.0
7 -0.002509689482761
8 -0.001278255243888
9 0.0
10 -0.000094152185452
11 0.000274590861538
12 -0.000180438676086
13 0.000148031695919
14 0.0
15 0.0
16 0.000190148455295
17 0.000325758176375
18 -0.006033563558329
19 -0.000000162358770
20 0.000049845593981
21 0.0
22 -0.001345171875757
23 0.002361986166670
24 0.0
25 0.000007213395887
26 -0.000116904356829
27 0.000109690960942
28 0.000084945730371
29 0.0