[Molden Format]
[Molpro variables]
_NUMVAR=  790.0000000000000    
_AVOGAD= 0.6022136736000000E+24
_BOLTZ= 0.1380658000000000E-22
_CLIGHT=  29979245800.00000    
_EV2006= 0.3674930886769165E-01
_EV= 0.3674932534394180E-01
_ENULL= 0.8854187817000000E-11
_KJOULE= 0.3808798324128737E-03
_KJOULE/MOL= 0.3808798324128737E-03
_CM= 0.4556335267302901E-05
_CM-1= 0.4556335267302901E-05
_DEB2SI= 0.3335641000000000E-29
_AMU2AU=  1822.888390000000    
_KCAL= 0.1593601117815568E-02
_KCAL/MOL= 0.1593601117815568E-02
_KELVIN2006= 0.3166828861084835E-05
_KELVIN= 0.3166814820820034E-05
_JOULE= 0.4359748200000000E-17
_HERTZ2006= 0.1519829850815779E-15
_HERTZ= 0.1519829846011223E-15
_HZ2006= 0.1519829850815779E-15
_HZ= 0.1519829846011223E-15
_JPCAL=  4.184000000000000    
_PLANCK= 0.6626075540000000E-33
_TOA2006= 0.5291772490000000    
_TOA= 0.5291772090000000    
_TOANG2006= 0.5291772490000000    
_TOANG= 0.5291772090000000    
_TORAD= 0.1745329251994330E-01
_TOCM=  219474.6306700000    
_TODEBYE=  2.541580000000000    
_TOEV2006=  27.21139610000000    
_TOE= 0.4803242000000000E-09
_TOEV=  27.21138390000000    
_TOHERTZ2006=  6579683899900000.    
_TOHERTZ=  6579683920700000.    
_TOHZ2006=  6579683899900000.    
_TOHZ=  6579683920700000.    
_TOK2006=  315773.3000000000    
_TOK=  315774.7000000000    
_TOKCAL=  627.5096000000000    
_TOKELVIN2006=  315773.3000000000    
_TOKELVIN=  315774.7000000000    
_TOKJ=  2625.500000000000    
_TOKJOULE=  2625.500000000000    
_TOKG= 0.1660565586000000E-26
_ANG2006=  1.889725988578923    
_ANG=  1.889726131421507    
_ANGSTROM2006=  1.889725988578923    
_ANGSTROM=  1.889726131421507    
_RPAREF=  0.000000000000000    
_RPADISS=  0.000000000000000    
_IGNORE_UNDEF=  2.000000000000000    
_STRICTCHECK=  0.000000000000000    
_SEW_ONEEL=  0.000000000000000    
_CPPDONE=FALSE
_DKROLL_DONE=  0.000000000000000    
_FOCKDONE=TRUE
_GRADONE=FALSE
_HESSDONE=FALSE
_INTDONE=TRUE
_SCFDONE=TRUE
_MODUL_BLOCK=FALSE
_MODUL_CUDA=FALSE
_MODUL_SLATER=FALSE
_MODUL_MRCC=FALSE
_MODUL_NBO6=FALSE
_MODUL_NECI=TRUE
_MODUL_AIMS=TRUE
_MRCC_EXEC=
_FITC_AO_SAVED=FALSE
_FITC_MO_SAVED=FALSE
_SHARED_FS=TRUE
_LSTYP=SEWARD
_INTYP=INTS
_GEOMTYP=ZMAT
_GRADTYP=ALASKA
_DIRECT=FALSE
_DKHO= -1.000000000000000    
_SYNCM=  0.000000000000000    
_BASIS=USERDEF
_ZORIENT=  1.000000000000000    
_NELEC=  16.00000000000000    
!SPIN=  0.000000000000000    
_QSDSTEP=  0.000000000000000    
_QSDIRC=  0.000000000000000    
_PROGRAM=MATROP
_CPUSTEP= 0.2000000000000002E-01
_SYSSTEP=  0.000000000000000    
_WALLSTEP= 0.1800000000000000    
!DFSCF=  0.000000000000000    
!SCSGRD=  0.000000000000000    
_BASINP=  610.0000000000000    
_CPUTOT=  3.420000000000000    
_DFTEXFAC=  1.000000000000000    
_DMX=  0.000000000000000    
_DMY=  0.000000000000000    
_DMZ=  0.000000000000000    
_DMX_SCF=  0.000000000000000    
_DMY_SCF=  0.000000000000000    
_DMZ_SCF=  0.000000000000000    
_EHOMO=-0.3931176384602726    
_ELUMO= 0.1507684619211550    
_ENUC=  32.90960542492468    
_EPS1= -15.67674375027686    
_EPS2=-0.5571906749740081    
_EPS3= -15.67542446661046    
_EPS4=-0.5304256060628115E-01
_GRADEXFAC=  9999.000000000000    
_GRADMETHOD=TRUE
_NMRMETHOD=  0.000000000000000    
!GRID_FREEZE= -1.000000000000000    
_ITERATIONS=  0.000000000000000    
_LASTNELEC=  8.000000000000000    
_LASTSPIN=  2.000000000000000    
_LASTSYM=  1.000000000000000    
_MPP_PROG=  0.000000000000000    
_NPROC_MPP=  1.000000000000000    
_NPROC_MPPX=  1.000000000000000    
_NPROC_SMP=  16.00000000000000    
_NUMSTEP=  0.000000000000000    
_ORBITAL=  2141.200000000000    
_PI=  3.141592653589793    
_SEIG_MIN= 0.7442282617841975E-02
_SEWPROP=TRUE
_STATUS=  0.000000000000000    
_SYSTOT=  1.780000000000000    
_VERSION=  2012001.000000000    
_WALLTOT=  29.58000000000000    
_DATE=24-Jan-19
_LASTORB=MCSCF
_MACHINE=Linux-4.9.0-8-amd64/nympha18.meta.zcu.cz(x86_64) (16 PROC) 64 bit serial version
_OUTPUT=/auto/brno2/home/masiz4am/git/UKRmol-in/tests/suite/C2h_target_CAS3/molpro.xml
_PGROUP=C2h
_TIME=16:35:36
_LIBMOL=/afs/ics.muni.cz/software/molpro-2012.1/molprop_2012_1_Linux_x86_64_i8/lib/
!VIBCNT=  0.000000000000000    
!RGHFCNT=  0.000000000000000    
!SURFREC=  0.000000000000000    
!POLYREC=  0.000000000000000    
!DIPREC=  0.000000000000000    
!VSCFREC=  0.000000000000000    
!VCIREC=  0.000000000000000    
!PVCIREC=  0.000000000000000    
!VMP2REC=  0.000000000000000    
!VMCSCFREC=  0.000000000000000    
!VMRCIREC=  0.000000000000000    
!VIBINFO=  0.000000000000000    
!GAREC=  0.000000000000000    
!SCFORB=  21002.00000000000    
!MCORB=  21412.00000000000    
!NEWMOL= -1.000000000000000    
!NEWSYM= -1.000000000000000    
_SLFILES=slscratch
_NGSSTO=  9.000000000000000    
_SIN=SIN
_COS=COS
_TAN=TAN
_ACOS=ACOS
_ASIN=ASIN
_ATAN=ATAN
_COSH=COSH
_SINH=SINH
_TANH=TANH
_ABS=ABS
_MOD=MOD
_ERF=ERF
_REFC=REFC
_ERFC=ERFC
_HYPOT=HYPOT
_J0=J0
_J1=J1
_JN=JN
_GAMMA=GAMMA
_LGAMMA=LGAMMA
_Y0=Y0
_Y1=Y1
_YN=YN
_EXP=EXP
_LOG=LOG
_LOG10=LOG10
_SQRT=SQRT
_INT=INT
_NINT=NINT
_MAX=MAX
_MIN=MIN
_COSMO=  0.000000000000000    
_COSMOIT=  0.000000000000000    
_COSMOES=  0.000000000000000    
_COSMOEDS=  0.000000000000000    
_COSMOEC=  0.000000000000000    
_COSMOEDCORR=  0.000000000000000    
_FEPSI=  1.000000000000000    
_SL_IsMM=  0.000000000000000    
_SL_NSYM=  4.000000000000000    
_SL_System_BitSw=  0.000000000000000    
_SL_Unique_atoms=  0.000000000000000    
_SL_GRAD=  0.000000000000000    
_SL_MAXUPD_Hess=  5.000000000000000    
_SL_N_PRINT_COD=  5.000000000000000    
_SL_PRINT_CODES=  0.000000000000000    
_SL_BasType=  0.000000000000000    
_SL_Energy_Pred=  0.000000000000000    
_SL_New_Coords=  0.000000000000000    
_SL_Total_Nuclea=  0.000000000000000    
_SL_Highest_Mltp=  0.000000000000000    
_SL_Ref_Geom=  0.000000000000000    
_SL_Symmetry_ope=  1.000000000000000    
_SL_agrad=  0.000000000000000    
_SL_GrdMax=  0.000000000000000    
_SL_GrdNorm=  0.000000000000000    
_SL_GrdRMS=  0.000000000000000    
!LATTICE= -1.000000000000000    
!NEWLATTICE=  0.000000000000000    
!LATGRAD_VAR=FALSE
!SEW_LATTICE=  1.000000000000000    
!LOCAL=  0.000000000000000    
!SAVEDOM= -1.000000000000000    
!RESTDOM= -1.000000000000000    
!SAVEDOM_HF= -1.000000000000000    
!RESTDOM_HF= -1.000000000000000    
!HESSREC=  0.000000000000000    
!FREQREC=  0.000000000000000    
!NMODREC=  0.000000000000000    
!GTASKS=  0.000000000000000    
!HTASKS=  0.000000000000000    
!THRCHG= 0.1000000000000000    
!DEBUG= -1.000000000000000    
!CFIT_CPHF=  0.000000000000000    
!RDOMAUX_CPHF=  3.000000000000000    
!THRAO_CPHF= 0.1000000000000000E-09
!THRMO_CPHF= 0.1000000000000000E-08
!THROV_CPHF= 0.1000000000000000E-11
!THRSW_CPHF= 0.1000000000000000E-09
!THRPROD_CPHF= 0.1000000000000000E-08
!THRAOPR_CPHF= 0.1000000000000000E-11
!CFIT_SCFGRD=  0.000000000000000    
!RDOMAUX_SCFGRD=  5.000000000000000    
!THRAO_SCFGRD= 0.1000000000000000E-09
!THRMO_SCFGRD= 0.1000000000000000E-08
!THROV_SCFGRD= 0.1000000000000000E-11
!THRSW_SCFGRD= 0.1000000000000000E-09
!THRPROD_SCFGRD= 0.1000000000000000E-08
!THRAOPR_SCFGRD= 0.1000000000000000E-11
!LOCFIT_SCF=  0.000000000000000    
!LOCFIT_MP2= -1.000000000000000    
_RIDOM=  0.000000000000000    
!CC2_METHOD=  0.000000000000000    
_BASIS2006=FALSE
_SVDDEL= -1.000000000000000    
_SVDDELA= -1.000000000000000    
_SVDDELP= -1.000000000000000    
_SVDDELF= -1.000000000000000    
_SVDDELS= -1.000000000000000    
_SVDDEL_ABS= -1.000000000000000    
_SVDDELA_ABS= -1.000000000000000    
_SVDDELP_ABS= -1.000000000000000    
_SVDDELF_ABS= -1.000000000000000    
_SVDDELS_ABS= -1.000000000000000    
_MAXBASIS=  0.000000000000000    
!OPT_CONICAL=  0.000000000000000    
!CLEARSP_JGRID=  0.000000000000000    
_4EXT_NDISKS=  1.000000000000000    
!ZMP=  0.000000000000000    
_MAXIT_ZMP=  500.0000000000000    
_MAXDIS_ZMP=  100.0000000000000    
_ACCU_ZMP=  14.00000000000000    
_SHIFTA_ZMP= -100.0000000000000    
!EMBEDFLAG=  1.000000000000000    
!EMBED=FALSE
!EMBED_F12=FALSE
!EMBEDNUC=  0.000000000000000    
_EMBEDENERGY=  0.000000000000000    
_KSPACETIME=  0.000000000000000    
_RSPACETIME=  0.000000000000000    
!EMBED_DFC=FALSE
!NUM_VOIDS=  0.000000000000000    
_IBODY=  0.000000000000000    
_EMBE_TOTAL=  0.000000000000000    
_EMBE_HF=  0.000000000000000    
_EMBE_CORR=  0.000000000000000    
!EDFT=  0.000000000000000    
_IFASTLATGRAD=  0.000000000000000    
_SINDEX=  0.000000000000000    
M_NAME=CASSCF(8,8)
M_CLOSED=  2.000000000000000    
M_OCC=  5.000000000000000    
GX1=  1.147819566000000    
GY1=  0.000000000000000    
GZ1=  0.000000000000000    
GX2=  1.722863184000000    
GY2=  1.840404140000000    
GZ2=  0.000000000000000    
GX3= -1.147819566000000    
GY3=  0.000000000000000    
GZ3=  0.000000000000000    
GX4= -1.722863184000000    
GY4= -1.840404140000000    
GZ4=  0.000000000000000    
_TRDMX=  0.000000000000000    
_TRDMY=  0.000000000000000    
_TRDMZ=  0.000000000000000    
[Atoms] Angs
N     1    7         0.6073999544        0.0000000000        0.0000000000
H     2    1         0.9116999312        0.9738999262        0.0000000000
N     3    7        -0.6073999544        0.0000000000        0.0000000000
H     4    1        -0.9116999312       -0.9738999262        0.0000000000
[GTO]
  1 0
 s    8  1.00
  0.9046000000D+04  0.6996174134D-03
  0.1357000000D+04  0.5386054630D-02
  0.3093000000D+03  0.2739102119D-01
  0.8773000000D+02  0.1031505920D+00
  0.2856000000D+02  0.2785706633D+00
  0.1021000000D+02  0.4482948495D+00
  0.3838000000D+01  0.2780859284D+00
  0.7466000000D+00  0.1543156123D-01
 s    8  1.00
  0.9046000000D+04 -0.3049900960D-03
  0.1357000000D+04 -0.2408026379D-02
  0.3093000000D+03 -0.1194444873D-01
  0.8773000000D+02 -0.4892599291D-01
  0.2856000000D+02 -0.1344727247D+00
  0.1021000000D+02 -0.3151125777D+00
  0.3838000000D+01 -0.2428578325D+00
  0.7466000000D+00  0.1094382207D+01
 s    1  1.00
  0.2248000000D+00  0.1000000000D+01
 p    3  1.00
  0.1355000000D+02  0.5890567677D-01
  0.2917000000D+01  0.3204611067D+00
  0.7973000000D+00  0.7530420618D+00
 p    1  1.00
  0.2185000000D+00  0.1000000000D+01
 d    1  1.00
  0.8170000000D+00  0.1000000000D+01
  
  3 0
 s    8  1.00
  0.9046000000D+04  0.6996174134D-03
  0.1357000000D+04  0.5386054630D-02
  0.3093000000D+03  0.2739102119D-01
  0.8773000000D+02  0.1031505920D+00
  0.2856000000D+02  0.2785706633D+00
  0.1021000000D+02  0.4482948495D+00
  0.3838000000D+01  0.2780859284D+00
  0.7466000000D+00  0.1543156123D-01
 s    8  1.00
  0.9046000000D+04 -0.3049900960D-03
  0.1357000000D+04 -0.2408026379D-02
  0.3093000000D+03 -0.1194444873D-01
  0.8773000000D+02 -0.4892599291D-01
  0.2856000000D+02 -0.1344727247D+00
  0.1021000000D+02 -0.3151125777D+00
  0.3838000000D+01 -0.2428578325D+00
  0.7466000000D+00  0.1094382207D+01
 s    1  1.00
  0.2248000000D+00  0.1000000000D+01
 p    3  1.00
  0.1355000000D+02  0.5890567677D-01
  0.2917000000D+01  0.3204611067D+00
  0.7973000000D+00  0.7530420618D+00
 p    1  1.00
  0.2185000000D+00  0.1000000000D+01
 d    1  1.00
  0.8170000000D+00  0.1000000000D+01
  
  2 0
 s    3  1.00
  0.1301000000D+02  0.3349872639D-01
  0.1962000000D+01  0.2348008012D+00
  0.4446000000D+00  0.8136829579D+00
 s    1  1.00
  0.1220000000D+00  0.1000000000D+01
 p    1  1.00
  0.7270000000D+00  0.1000000000D+01
  
  4 0
 s    3  1.00
  0.1301000000D+02  0.3349872639D-01
  0.1962000000D+01  0.2348008012D+00
  0.4446000000D+00  0.8136829579D+00
 s    1  1.00
  0.1220000000D+00  0.1000000000D+01
 p    1  1.00
  0.7270000000D+00  0.1000000000D+01
 
 
[MO]
 Sym=      1.1
 Ene=     -15.6767
 Spin= Alpha
 Occup=    2.000000
1 0.70796356731561
2 0.001679982706382
3 -0.002672430444025
4 -0.001319969903919
5 0.000651601695954
6 0.0
7 0.000333040335678
8 -0.000712059209445
9 0.0
10 -0.000107944530134
11 0.000147485513184
12 -0.000039540983051
13 0.000168646967543
14 0.0
15 0.0
16 0.70796356731561
17 0.001679982706382
18 -0.002672430444025
19 0.001319969903919
20 -0.000651601695954
21 0.0
22 -0.000333040335678
23 0.000712059209445
24 0.0
25 -0.000107944530134
26 0.000147485513184
27 -0.000039540983051
28 0.000168646967543
29 0.0
30 0.0
31 -0.000254773549783
32 0.000754963103769
33 -0.000003945237776
34 0.000423026652075
35 0.0
36 -0.000254773549783
37 0.000754963103769
38 0.000003945237776
39 -0.000423026652075
40 0.0
 Sym=      1.3
 Ene=     -15.6754
 Spin= Alpha
 Occup=    2.000000
1 0.70821903175706
2 0.001791855754229
3 -0.004557622363952
4 -0.001357511954047
5 0.000778193541926
6 0.0
7 0.001358416247111
8 -0.000246220747931
9 0.0
10 0.000617024819127
11 -0.000102041040199
12 -0.000514983778928
13 0.000120966261572
14 0.0
15 0.0
16 -0.70821903175706
17 -0.001791855754229
18 0.004557622363952
19 -0.001357511954047
20 0.000778193541926
21 0.0
22 0.001358416247111
23 -0.000246220747931
24 0.0
25 -0.000617024819127
26 0.000102041040199
27 0.000514983778928
28 -0.000120966261572
29 0.0
30 0.0
31 -0.000127892014718
32 0.000246971359246
33 0.000129348792108
34 0.000504244609338
35 0.0
36 0.000127892014718
37 -0.000246971359246
38 0.000129348792108
39 0.000504244609338
40 0.0
 Sym=      2.1
 Ene=      -1.1717
 Spin= Alpha
 Occup=    2.000000
1 -0.008223189469751
2 0.27640447919194
3 0.20907334259059
4 0.079304298366780
5 0.10862811031787
6 0.0
7 0.059740707038071
8 0.027144566293627
9 0.0
10 0.002703281767989
11 0.003863340599889
12 -0.006566622367878
13 0.007708604324975
14 0.0
15 0.0
16 -0.008223189469751
17 0.27640447919194
18 0.20907334259059
19 -0.079304298366780
20 -0.10862811031787
21 0.0
22 -0.059740707038071
23 -0.027144566293627
24 0.0
25 0.002703281767989
26 0.003863340599889
27 -0.006566622367878
28 0.007708604324975
29 0.0
30 0.0
31 0.22924857549253
32 0.046681500451123
33 -0.006705663115010
34 -0.029984278838609
35 0.0
36 0.22924857549253
37 0.046681500451123
38 0.006705663115010
39 0.029984278838609
40 0.0
 Sym=      2.3
 Ene=      -0.9695
 Spin= Alpha
 Occup=    2.000000
1 -0.000962578846452
2 0.25865746944035
3 0.24109886204253
4 0.12733388569467
5 0.16209535403986
6 0.0
7 0.055031210268555
8 0.044471207603973
9 0.0
10 -0.015721264496614
11 0.013604991168366
12 0.002116273328248
13 -0.005308510306861
14 0.0
15 0.0
16 0.000962578846452
17 -0.25865746944035
18 -0.24109886204253
19 0.12733388569467
20 0.16209535403986
21 0.0
22 0.055031210268555
23 0.044471207603973
24 0.0
25 0.015721264496614
26 -0.013604991168366
27 -0.002116273328248
28 0.005308510306861
29 0.0
30 0.0
31 0.24597054749183
32 0.030388999953439
33 -0.011011876451070
34 -0.034146978993999
35 0.0
36 -0.24597054749183
37 -0.030388999953439
38 -0.011011876451070
39 -0.034146978993999
40 0.0
 Sym=      3.1
 Ene=      -0.9510
 Spin= Alpha
 Occup=    1.979034
1 -0.000913414626773
2 -0.16811766782735
3 -0.058400562572566
4 0.40969150205994
5 0.11070441679240
6 0.0
7 0.14941370549089
8 0.047865141877612
9 0.0
10 -0.036182849293365
11 0.024571626385882
12 0.011611222907483
13 0.011704920539767
14 0.0
15 0.0
16 -0.000913414626773
17 -0.16811766782735
18 -0.058400562572566
19 -0.40969150205994
20 -0.11070441679240
21 0.0
22 -0.14941370549089
23 -0.047865141877612
24 0.0
25 -0.036182849293365
26 0.024571626385882
27 0.011611222907483
28 0.011704920539767
29 0.0
30 0.0
31 0.14869912698489
32 0.069463228615687
33 0.004504052601280
34 -0.008864496839504
35 0.0
36 0.14869912698489
37 0.069463228615687
38 -0.004504052601280
39 0.008864496839504
40 0.0
 Sym=      3.3
 Ene=      -0.6307
 Spin= Alpha
 Occup=    1.811762
1 -0.003014386780831
2 -0.18765345070767
3 -0.28900138782838
4 -0.10278317542983
5 0.33559326315716
6 0.0
7 -0.070489506593285
8 0.18828130931481
9 0.0
10 0.003226900178576
11 0.003623103744383
12 -0.006850003922959
13 -0.026949069929396
14 0.0
15 0.0
16 0.003014386780831
17 0.18765345070767
18 0.28900138782838
19 -0.10278317542983
20 0.33559326315716
21 0.0
22 -0.070489506593285
23 0.18828130931481
24 0.0
25 -0.003226900178576
26 -0.003623103744383
27 0.006850003922959
28 0.026949069929396
29 0.0
30 0.0
31 0.11202368644342
32 0.031110618950811
33 -0.012289119157530
34 -0.008060655737591
35 0.0
36 -0.11202368644342
37 -0.031110618950811
38 -0.012289119157530
39 -0.008060655737591
40 0.0
 Sym=      1.2
 Ene=      -0.5572
 Spin= Alpha
 Occup=    1.791570
1 0.0
2 0.0
3 0.0
4 0.0
5 0.0
6 0.42759493701712
7 0.0
8 0.0
9 0.27145963034808
10 0.0
11 0.0
12 0.0
13 0.0
14 -0.034008693108836
15 0.006676045771934
16 0.0
17 0.0
18 0.0
19 0.0
20 0.0
21 0.42759493701712
22 0.0
23 0.0
24 0.27145963034808
25 0.0
26 0.0
27 0.0
28 0.0
29 0.034008693108836
30 -0.006676045771934
31 0.0
32 0.0
33 0.0
34 0.0
35 0.014479809763202
36 0.0
37 0.0
38 0.0
39 0.0
40 0.014479809763202
 Sym=      4.1
 Ene=      -0.2545
 Spin= Alpha
 Occup=    1.055218
1 0.005660922425781
2 -0.099014115325130
3 -0.29765463003340
4 -0.23474468704033
5 0.35043309933184
6 0.0
7 -0.15992011290934
8 0.28001766235326
9 0.0
10 0.003673363205023
11 0.009848035381102
12 -0.013521398586126
13 0.009054248572819
14 0.0
15 0.0
16 0.005660922425781
17 -0.099014115325130
18 -0.29765463003340
19 0.23474468704033
20 -0.35043309933184
21 0.0
22 0.15992011290934
23 -0.28001766235326
24 0.0
25 0.003673363205023
26 0.009848035381102
27 -0.013521398586126
28 0.009054248572819
29 0.0
30 0.0
31 0.21468612999675
32 0.067011190356761
33 -0.013472306976249
34 -0.008789032886221
35 0.0
36 0.21468612999675
37 0.067011190356761
38 0.013472306976249
39 0.008789032886221
40 0.0
 Sym=      1.4
 Ene=      -0.0530
 Spin= Alpha
 Occup=    0.797366
1 0.0
2 0.0
3 0.0
4 0.0
5 0.0
6 0.50398191963743
7 0.0
8 0.0
9 0.47799460633912
10 0.0
11 0.0
12 0.0
13 0.0
14 0.009717652508492
15 0.009440697910039
16 0.0
17 0.0
18 0.0
19 0.0
20 0.0
21 -0.50398191963743
22 0.0
23 0.0
24 -0.47799460633912
25 0.0
26 0.0
27 0.0
28 0.0
29 0.009717652508492
30 0.009440697910039
31 0.0
32 0.0
33 0.0
34 0.0
35 0.022642378041322
36 0.0
37 0.0
38 0.0
39 0.0
40 -0.022642378041322
 Sym=      4.3
 Ene=       0.1751
 Spin= Alpha
 Occup=    0.293814
1 0.005656331437096
2 -0.097640264819541
3 -0.49715209727345
4 -0.042916801025994
5 -0.23555888732312
6 0.0
7 -0.17631962198285
8 -0.32181124572048
9 0.0
10 0.014539632048866
11 -0.002853144178961
12 -0.011686487869905
13 0.020388997198709
14 0.0
15 0.0
16 -0.005656331437096
17 0.097640264819541
18 0.49715209727345
19 -0.042916801025994
20 -0.23555888732312
21 0.0
22 -0.17631962198285
23 -0.32181124572048
24 0.0
25 -0.014539632048866
26 0.002853144178961
27 0.011686487869905
28 -0.020388997198709
29 0.0
30 0.0
31 0.14651030658303
32 1.10576540639497
33 0.006641837561623
34 0.005147502817067
35 0.0
36 -0.14651030658303
37 -1.10576540639497
38 0.006641837561623
39 0.005147502817067
40 0.0
 Sym=      5.1
 Ene=       0.1720
 Spin= Alpha
 Occup=    0.247510
1 0.006152282124107
2 -0.11019665833585
3 -0.67415967451626
4 -0.093643193190179
5 -0.21591272688884
6 0.0
7 -0.17148127688586
8 -0.39483174373154
9 0.0
10 -0.005768518890343
11 0.007205410613002
12 -0.001436891722658
13 -0.005223646818224
14 0.0
15 0.0
16 0.006152282124107
17 -0.11019665833585
18 -0.67415967451626
19 0.093643193190179
20 0.21591272688884
21 0.0
22 0.17148127688586
23 0.39483174373154
24 0.0
25 -0.005768518890343
26 0.007205410613002
27 -0.001436891722658
28 -0.005223646818224
29 0.0
30 0.0
31 0.088928350296970
32 1.01442950272736
33 -0.009440269642738
34 0.008320751714961
35 0.0
36 0.088928350296970
37 1.01442950272736
38 0.009440269642738
39 -0.008320751714961
40 0.0
 Sym=      5.3
 Ene=       0.8652
 Spin= Alpha
 Occup=    0.023726
1 -0.099414475136250
2 -0.41010959195092
3 -0.46479823723022
4 0.80221801991077
5 0.048230029137639
6 0.0
7 0.32612381347053
8 -0.003795694038068
9 0.0
10 -0.017958299019190
11 0.021398203346309
12 -0.003439904327119
13 -0.024477742668863
14 0.0
15 0.0
16 0.099414475136250
17 0.41010959195092
18 0.46479823723022
19 0.80221801991077
20 0.048230029137639
21 0.0
22 0.32612381347053
23 -0.003795694038068
24 0.0
25 0.017958299019190
26 -0.021398203346309
27 0.003439904327119
28 0.024477742668863
29 0.0
30 0.0
31 -0.029660502152390
32 -0.014920703009066
33 0.014016788364487
34 -0.004197523856718
35 0.0
36 0.029660502152390
37 0.014920703009066
38 0.014016788364487
39 -0.004197523856718
40 0.0
 Sym=      6.3
 Ene=       0.7170
 Spin= Alpha
 Occup=    0.000000
1 -0.082085090602045
2 -0.15228388426806
3 1.88383743747170
4 0.22077891225536
5 -0.24114206125024
6 0.0
7 -1.43946451660147
8 0.13931637604211
9 0.0
10 0.066125035583827
11 0.044271972195251
12 -0.11039700777908
13 0.098359448731376
14 0.0
15 0.0
16 0.082085090602045
17 0.15228388426806
18 -1.88383743747170
19 0.22077891225536
20 -0.24114206125024
21 0.0
22 -1.43946451660147
23 0.13931637604211
24 0.0
25 -0.066125035583827
26 -0.044271972195251
27 0.11039700777908
28 -0.098359448731376
29 0.0
30 0.0
31 0.55431447806919
32 -0.52164874724308
33 0.12295605653251
34 0.13942619430968
35 0.0
36 -0.55431447806919
37 0.52164874724308
38 0.12295605653251
39 0.13942619430968
40 0.0
 Sym=      6.1
 Ene=       0.7587
 Spin= Alpha
 Occup=    0.000000
1 -0.092087403813307
2 -0.20346650850314
3 0.018762637356687
4 0.32665903522764
5 -0.10869834126556
6 0.0
7 -0.61654582750924
8 -0.46751043191134
9 0.0
10 -0.076697347639766
11 0.10748075900615
12 -0.030783411366381
13 0.011440725351895
14 0.0
15 0.0
16 -0.092087403813307
17 -0.20346650850314
18 0.018762637356687
19 -0.32665903522764
20 0.10869834126556
21 0.0
22 0.61654582750924
23 0.46751043191134
24 0.0
25 -0.076697347639766
26 0.10748075900615
27 -0.030783411366381
28 0.011440725351895
29 0.0
30 0.0
31 0.64186459294183
32 -0.41525026184113
33 -0.062933468554278
34 0.084373796545665
35 0.0
36 0.64186459294183
37 -0.41525026184113
38 0.062933468554278
39 -0.084373796545665
40 0.0
 Sym=      7.3
 Ene=       0.7855
 Spin= Alpha
 Occup=    0.000000
1 -0.000951799498329
2 -0.17675514686382
3 -2.08753797388573
4 -0.29383210172704
5 0.073852785870287
6 0.0
7 1.95179754421132
8 -0.078704341937845
9 0.0
10 -0.11958954632933
11 0.11448973684733
12 0.005099809482008
13 0.053076699650941
14 0.0
15 0.0
16 0.000951799498329
17 0.17675514686382
18 2.08753797388573
19 -0.29383210172704
20 0.073852785870287
21 0.0
22 1.95179754421132
23 -0.078704341937845
24 0.0
25 0.11958954632933
26 -0.11448973684733
27 -0.005099809482008
28 -0.053076699650941
29 0.0
30 0.0
31 0.58286195276415
32 -0.76585050411261
33 0.027491200463104
34 0.11840748325580
35 0.0
36 -0.58286195276415
37 0.76585050411261
38 0.027491200463104
39 0.11840748325580
40 0.0
 Sym=      7.1
 Ene=       0.8571
 Spin= Alpha
 Occup=    0.000000
1 -0.059046509377113
2 -0.12380789336842
3 -0.32126178176883
4 0.21137356965783
5 0.49495574325711
6 0.0
7 -0.36878799366094
8 -0.69005684436977
9 0.0
10 -0.015119769818328
11 -0.082437188133377
12 0.097556957951705
13 -0.008135301276705
14 0.0
15 0.0
16 -0.059046509377113
17 -0.12380789336842
18 -0.32126178176883
19 -0.21137356965783
20 -0.49495574325711
21 0.0
22 0.36878799366094
23 0.69005684436977
24 0.0
25 -0.015119769818328
26 -0.082437188133377
27 0.097556957951705
28 -0.008135301276705
29 0.0
30 0.0
31 -0.29786666718207
32 0.59144844322535
33 -0.13546412804347
34 -0.21301913765777
35 0.0
36 -0.29786666718207
37 0.59144844322535
38 0.13546412804347
39 0.21301913765777
40 0.0
 Sym=      2.2
 Ene=       0.8876
 Spin= Alpha
 Occup=    0.000000
1 0.0
2 0.0
3 0.0
4 0.0
5 0.0
6 -0.67435586014107
7 0.0
8 0.0
9 0.62423875971276
10 0.0
11 0.0
12 0.0
13 0.0
14 0.090453489182121
15 0.002500503982916
16 0.0
17 0.0
18 0.0
19 0.0
20 0.0
21 -0.67435586014107
22 0.0
23 0.0
24 0.62423875971276
25 0.0
26 0.0
27 0.0
28 0.0
29 -0.090453489182121
30 -0.002500503982916
31 0.0
32 0.0
33 0.0
34 0.0
35 0.005770041887856
36 0.0
37 0.0
38 0.0
39 0.0
40 0.005770041887856
 Sym=      8.1
 Ene=       0.9756
 Spin= Alpha
 Occup=    0.000000
1 0.029254091105580
2 0.15118234133651
3 -0.17248338315868
4 0.38599045340254
5 -0.29960070765169
6 0.0
7 -0.51998404942328
8 1.08932163715558
9 0.0
10 -0.039102921352324
11 -0.065283924011091
12 0.10438684536342
13 -0.033658889453190
14 0.0
15 0.0
16 0.029254091105580
17 0.15118234133651
18 -0.17248338315868
19 -0.38599045340254
20 0.29960070765169
21 0.0
22 0.51998404942328
23 -1.08932163715558
24 0.0
25 -0.039102921352324
26 -0.065283924011091
27 0.10438684536342
28 -0.033658889453190
29 0.0
30 0.0
31 -0.59418306780892
32 0.24786372962085
33 0.11014332928281
34 -0.031457794611295
35 0.0
36 -0.59418306780892
37 0.24786372962085
38 -0.11014332928281
39 0.031457794611295
40 0.0
 Sym=      2.4
 Ene=       0.9978
 Spin= Alpha
 Occup=    0.000000
1 0.0
2 0.0
3 0.0
4 0.0
5 0.0
6 -0.67829760763256
7 0.0
8 0.0
9 1.15219113088797
10 0.0
11 0.0
12 0.0
13 0.0
14 -0.029566936823441
15 -0.000021407427046
16 0.0
17 0.0
18 0.0
19 0.0
20 0.0
21 0.67829760763256
22 0.0
23 0.0
24 -1.15219113088797
25 0.0
26 0.0
27 0.0
28 0.0
29 -0.029566936823441
30 -0.000021407427046
31 0.0
32 0.0
33 0.0
34 0.0
35 -0.023212136092137
36 0.0
37 0.0
38 0.0
39 0.0
40 0.023212136092137
 Sym=      8.3
 Ene=       1.0319
 Spin= Alpha
 Occup=    0.000000
1 0.046245061494412
2 0.10612317684561
3 -0.86349685514342
4 -0.067692721403632
5 -0.55523706350666
6 0.0
7 1.33209581399974
8 1.06205149088041
9 0.0
10 -0.061470339750546
11 0.045486083649040
12 0.015984256101506
13 0.058025412295591
14 0.0
15 0.0
16 -0.046245061494412
17 -0.10612317684561
18 0.86349685514342
19 -0.067692721403632
20 -0.55523706350666
21 0.0
22 1.33209581399974
23 1.06205149088041
24 0.0
25 0.061470339750546
26 -0.045486083649040
27 -0.015984256101506
28 -0.058025412295591
29 0.0
30 0.0
31 -0.36484054855930
32 -0.89621881532274
33 -0.026823829434424
34 0.20123502234824
35 0.0
36 0.36484054855930
37 0.89621881532274
38 -0.026823829434424
39 0.20123502234824
40 0.0
 Sym=      9.1
 Ene=       1.2488
 Spin= Alpha
 Occup=    0.000000
1 -0.50772831224845
2 -1.13022440887793
3 1.74955410603630
4 -0.11191089400500
5 -0.028122978730384
6 0.0
7 0.25281937988168
8 0.77709142904164
9 0.0
10 -0.12403956259993
11 -0.015095399061286
12 0.13913496166122
13 0.023523699960133
14 0.0
15 0.0
16 -0.50772831224845
17 -1.13022440887793
18 1.74955410603630
19 0.11191089400500
20 0.028122978730384
21 0.0
22 -0.25281937988168
23 -0.77709142904164
24 0.0
25 -0.12403956259993
26 -0.015095399061286
27 0.13913496166122
28 0.023523699960133
29 0.0
30 0.0
31 -0.36525940904221
32 -0.75458643062479
33 0.032190301267227
34 0.17925996371384
35 0.0
36 -0.36525940904221
37 -0.75458643062479
38 -0.032190301267227
39 -0.17925996371384
40 0.0
 Sym=      9.3
 Ene=       1.3720
 Spin= Alpha
 Occup=    0.000000
1 0.31065008837638
2 0.66587551038404
3 -2.14591317381926
4 -0.022015201320424
5 -0.009586684203470
6 0.0
7 0.75631539119186
8 0.041949914285506
9 0.0
10 -0.011946325071207
11 -0.028767322070987
12 0.040713647142194
13 0.24492000050156
14 0.0
15 0.0
16 -0.31065008837638
17 -0.66587551038404
18 2.14591317381926
19 -0.022015201320424
20 -0.009586684203470
21 0.0
22 0.75631539119186
23 0.041949914285506
24 0.0
25 0.011946325071207
26 0.028767322070987
27 -0.040713647142194
28 -0.24492000050156
29 0.0
30 0.0
31 0.038642782189408
32 0.12842954373783
33 0.36350193709934
34 -0.26947659647583
35 0.0
36 -0.038642782189408
37 -0.12842954373783
38 0.36350193709934
39 -0.26947659647583
40 0.0
 Sym=      3.4
 Ene=       1.3862
 Spin= Alpha
 Occup=    0.000000
1 0.0
2 0.0
3 0.0
4 0.0
5 0.0
6 -0.045588645708338
7 0.0
8 0.0
9 -0.29743280594248
10 0.0
11 0.0
12 0.0
13 0.0
14 -0.004900124364347
15 0.31985630229247
16 0.0
17 0.0
18 0.0
19 0.0
20 0.0
21 0.045588645708338
22 0.0
23 0.0
24 0.29743280594248
25 0.0
26 0.0
27 0.0
28 0.0
29 -0.004900124364347
30 0.31985630229247
31 0.0
32 0.0
33 0.0
34 0.0
35 0.54187057760893
36 0.0
37 0.0
38 0.0
39 0.0
40 -0.54187057760893
 Sym=      3.2
 Ene=       1.4700
 Spin= Alpha
 Occup=    0.000000
1 0.0
2 0.0
3 0.0
4 0.0
5 0.0
6 0.061168340300736
7 0.0
8 0.0
9 -0.20151604675140
10 0.0
11 0.0
12 0.0
13 0.0
14 0.15753325765754
15 0.17700552440830
16 0.0
17 0.0
18 0.0
19 0.0
20 0.0
21 0.061168340300736
22 0.0
23 0.0
24 -0.20151604675140
25 0.0
26 0.0
27 0.0
28 0.0
29 -0.15753325765754
30 -0.17700552440830
31 0.0
32 0.0
33 0.0
34 0.0
35 0.61467413433317
36 0.0
37 0.0
38 0.0
39 0.0
40 0.61467413433317
 Sym=     10.3
 Ene=       1.6354
 Spin= Alpha
 Occup=    0.000000
1 -0.56045149060435
2 -1.13626044141477
3 4.66215043726806
4 -0.14698122494275
5 0.066053989881451
6 0.0
7 -1.86369424736213
8 0.47402686827688
9 0.0
10 0.034822596440777
11 -0.16644731238647
12 0.13162471594569
13 0.15786128973506
14 0.0
15 0.0
16 0.56045149060435
17 1.13626044141477
18 -4.66215043726806
19 -0.14698122494275
20 0.066053989881451
21 0.0
22 -1.86369424736213
23 0.47402686827688
24 0.0
25 -0.034822596440777
26 0.16644731238647
27 -0.13162471594569
28 -0.15786128973506
29 0.0
30 0.0
31 -0.58235282508893
32 -0.26763869293873
33 0.37564762453712
34 0.060981027513796
35 0.0
36 0.58235282508893
37 0.26763869293873
38 0.37564762453712
39 0.060981027513796
40 0.0
 Sym=     10.1
 Ene=       1.7808
 Spin= Alpha
 Occup=    0.000000
1 -0.022338436919263
2 -0.064050307124318
3 -0.32490756275428
4 0.014602023412176
5 0.13692297288244
6 0.0
7 -0.48218118633044
8 -0.76447478482312
9 0.0
10 -0.064011762112385
11 -0.078734225260099
12 0.14274598737248
13 0.10532827628246
14 0.0
15 0.0
16 -0.022338436919263
17 -0.064050307124318
18 -0.32490756275428
19 -0.014602023412176
20 -0.13692297288244
21 0.0
22 0.48218118633044
23 0.76447478482312
24 0.0
25 -0.064011762112385
26 -0.078734225260099
27 0.14274598737248
28 0.10532827628246
29 0.0
30 0.0
31 0.41448506719893
32 0.091388217104967
33 0.69553496017017
34 -0.23853435556775
35 0.0
36 0.41448506719893
37 0.091388217104967
38 -0.69553496017017
39 0.23853435556775
40 0.0
 Sym=      4.2
 Ene=       1.7978
 Spin= Alpha
 Occup=    0.000000
1 0.0
2 0.0
3 0.0
4 0.0
5 0.0
6 0.20513778396827
7 0.0
8 0.0
9 0.027691916757696
10 0.0
11 0.0
12 0.0
13 0.0
14 0.57952386132901
15 -0.14380979340786
16 0.0
17 0.0
18 0.0
19 0.0
20 0.0
21 0.20513778396827
22 0.0
23 0.0
24 0.027691916757696
25 0.0
26 0.0
27 0.0
28 0.0
29 -0.57952386132901
30 0.14380979340786
31 0.0
32 0.0
33 0.0
34 0.0
35 -0.20188294567366
36 0.0
37 0.0