[Molden Format]
[Molpro variables]
_NUMVAR=  834.0000000000000    
_AVOGAD= 0.6022136736000000E+24
_BOLTZ= 0.1380658000000000E-22
_CLIGHT=  29979245800.00000    
_EV2006= 0.3674930886769165E-01
_EV= 0.3674932534394180E-01
_ENULL= 0.8854187817000000E-11
_KJOULE= 0.3808798324128737E-03
_KJOULE/MOL= 0.3808798324128737E-03
_CM= 0.4556335267302901E-05
_CM-1= 0.4556335267302901E-05
_DEB2SI= 0.3335641000000000E-29
_AMU2AU=  1822.888390000000    
_KCAL= 0.1593601117815568E-02
_KCAL/MOL= 0.1593601117815568E-02
_KELVIN2006= 0.3166828861084835E-05
_KELVIN= 0.3166814820820034E-05
_JOULE= 0.4359748200000000E-17
_HERTZ2006= 0.1519829850815779E-15
_HERTZ= 0.1519829846011223E-15
_HZ2006= 0.1519829850815779E-15
_HZ= 0.1519829846011223E-15
_JPCAL=  4.184000000000000    
_PLANCK= 0.6626075540000000E-33
_TOA2006= 0.5291772490000000    
_TOA= 0.5291772090000000    
_TOANG2006= 0.5291772490000000    
_TOANG= 0.5291772090000000    
_TORAD= 0.1745329251994330E-01
_TOCM=  219474.6306700000    
_TODEBYE=  2.541580000000000    
_TOEV2006=  27.21139610000000    
_TOE= 0.4803242000000000E-09
_TOEV=  27.21138390000000    
_TOHERTZ2006=  6579683899900000.    
_TOHERTZ=  6579683920700000.    
_TOHZ2006=  6579683899900000.    
_TOHZ=  6579683920700000.    
_TOK2006=  315773.3000000000    
_TOK=  315774.7000000000    
_TOKCAL=  627.5096000000000    
_TOKELVIN2006=  315773.3000000000    
_TOKELVIN=  315774.7000000000    
_TOKJ=  2625.500000000000    
_TOKJOULE=  2625.500000000000    
_TOKG= 0.1660565586000000E-26
_ANG2006=  1.889725988578923    
_ANG=  1.889726131421507    
_ANGSTROM2006=  1.889725988578923    
_ANGSTROM=  1.889726131421507    
_RPAREF=  0.000000000000000    
_RPADISS=  0.000000000000000    
_IGNORE_UNDEF=  2.000000000000000    
_STRICTCHECK=  0.000000000000000    
_SEW_ONEEL=  0.000000000000000    
_CPPDONE=FALSE
_DKROLL_DONE=  0.000000000000000    
_FOCKDONE=TRUE
_GRADONE=FALSE
_HESSDONE=FALSE
_INTDONE=TRUE
_SCFDONE=TRUE
_MODUL_BLOCK=FALSE
_MODUL_CUDA=FALSE
_MODUL_SLATER=FALSE
_MODUL_MRCC=FALSE
_MODUL_NBO6=FALSE
_MODUL_NECI=TRUE
_MODUL_AIMS=TRUE
_MRCC_EXEC=
_FITC_AO_SAVED=FALSE
_FITC_MO_SAVED=FALSE
_SHARED_FS=TRUE
_LSTYP=SEWARD
_INTYP=INTS
_GEOMTYP=ZMAT
_GRADTYP=ALASKA
_DIRECT=FALSE
_DKHO= -1.000000000000000    
_SYNCM=  0.000000000000000    
_BASIS=USERDEF
_ZORIENT=  1.000000000000000    
_NELEC=  46.00000000000000    
!SPIN=  0.000000000000000    
_QSDSTEP=  0.000000000000000    
_QSDIRC=  0.000000000000000    
_PROGRAM=MATROP
_CPUSTEP=  1.180000000000007    
_SYSSTEP=  0.000000000000000    
_WALLSTEP= 0.1900000000000000    
!DFSCF=  0.000000000000000    
!SCSGRD=  0.000000000000000    
_BASINP=  610.0000000000000    
_CPUTOT=  129.9100000000000    
_DFTEXFAC=  1.000000000000000    
_DMX=  0.000000000000000    
_DMY=  0.000000000000000    
_DMZ=  0.000000000000000    
_DMX_SCF=  0.000000000000000    
_DMY_SCF=  0.000000000000000    
_DMZ_SCF=  0.000000000000000    
_EHOMO=-0.2436372778085721    
_ELUMO=-0.1118322523278668    
_ENUC=  209.7190764685884    
_EPS1= -15.65303725357035    
_EPS2= -15.64274428980247    
_GRADEXFAC=  9999.000000000000    
_GRADMETHOD=TRUE
_NMRMETHOD=  0.000000000000000    
!GRID_FREEZE= -1.000000000000000    
_ITERATIONS=  0.000000000000000    
_LASTNELEC=  10.00000000000000    
_LASTSPIN=  2.000000000000000    
_LASTSYM=  1.000000000000000    
_MPP_PROG=  0.000000000000000    
_NPROC_MPP=  1.000000000000000    
_NPROC_MPPX=  1.000000000000000    
_NPROC_SMP=  16.00000000000000    
_NUMSTEP=  0.000000000000000    
_ORBITAL=  2141.200000000000    
_PI=  3.141592653589793    
_SEIG_MIN= 0.3661020316634271E-02
_SEWPROP=TRUE
_STATUS=  0.000000000000000    
_SYSTOT=  8.500000000000000    
_VERSION=  2012001.000000000    
_WALLTOT=  68.86000000000000    
_DATE=24-Jan-19
_LASTORB=MCSCF
_MACHINE=Linux-4.9.0-8-amd64/nympha18.meta.zcu.cz(x86_64) (16 PROC) 64 bit serial version
_OUTPUT=/auto/brno2/home/masiz4am/git/UKRmol-in/tests/suite/Ci_target_CAS2/molpro.xml
_PGROUP=Ci
_TIME=16:29:09
_LIBMOL=/afs/ics.muni.cz/software/molpro-2012.1/molprop_2012_1_Linux_x86_64_i8/lib/
!VIBCNT=  0.000000000000000    
!RGHFCNT=  0.000000000000000    
!SURFREC=  0.000000000000000    
!POLYREC=  0.000000000000000    
!DIPREC=  0.000000000000000    
!VSCFREC=  0.000000000000000    
!VCIREC=  0.000000000000000    
!PVCIREC=  0.000000000000000    
!VMP2REC=  0.000000000000000    
!VMCSCFREC=  0.000000000000000    
!VMRCIREC=  0.000000000000000    
!VIBINFO=  0.000000000000000    
!GAREC=  0.000000000000000    
!SCFORB=  21002.00000000000    
!MCORB=  21412.00000000000    
!NEWMOL= -1.000000000000000    
!NEWSYM= -1.000000000000000    
_SLFILES=slscratch
_NGSSTO=  9.000000000000000    
_SIN=SIN
_COS=COS
_TAN=TAN
_ACOS=ACOS
_ASIN=ASIN
_ATAN=ATAN
_COSH=COSH
_SINH=SINH
_TANH=TANH
_ABS=ABS
_MOD=MOD
_ERF=ERF
_REFC=REFC
_ERFC=ERFC
_HYPOT=HYPOT
_J0=J0
_J1=J1
_JN=JN
_GAMMA=GAMMA
_LGAMMA=LGAMMA
_Y0=Y0
_Y1=Y1
_YN=YN
_EXP=EXP
_LOG=LOG
_LOG10=LOG10
_SQRT=SQRT
_INT=INT
_NINT=NINT
_MAX=MAX
_MIN=MIN
_COSMO=  0.000000000000000    
_COSMOIT=  0.000000000000000    
_COSMOES=  0.000000000000000    
_COSMOEDS=  0.000000000000000    
_COSMOEC=  0.000000000000000    
_COSMOEDCORR=  0.000000000000000    
_FEPSI=  1.000000000000000    
_SL_IsMM=  0.000000000000000    
_SL_NSYM=  2.000000000000000    
_SL_System_BitSw=  0.000000000000000    
_SL_Unique_atoms=  0.000000000000000    
_SL_GRAD=  0.000000000000000    
_SL_MAXUPD_Hess=  5.000000000000000    
_SL_N_PRINT_COD=  5.000000000000000    
_SL_PRINT_CODES=  0.000000000000000    
_SL_BasType=  0.000000000000000    
_SL_Energy_Pred=  0.000000000000000    
_SL_New_Coords=  0.000000000000000    
_SL_Total_Nuclea=  0.000000000000000    
_SL_Highest_Mltp=  0.000000000000000    
_SL_Ref_Geom=  0.000000000000000    
_SL_Symmetry_ope=  1.000000000000000    
_SL_agrad=  0.000000000000000    
_SL_GrdMax=  0.000000000000000    
_SL_GrdNorm=  0.000000000000000    
_SL_GrdRMS=  0.000000000000000    
!LATTICE= -1.000000000000000    
!NEWLATTICE=  0.000000000000000    
!LATGRAD_VAR=FALSE
!SEW_LATTICE=  1.000000000000000    
!LOCAL=  0.000000000000000    
!SAVEDOM= -1.000000000000000    
!RESTDOM= -1.000000000000000    
!SAVEDOM_HF= -1.000000000000000    
!RESTDOM_HF= -1.000000000000000    
!HESSREC=  0.000000000000000    
!FREQREC=  0.000000000000000    
!NMODREC=  0.000000000000000    
!GTASKS=  0.000000000000000    
!HTASKS=  0.000000000000000    
!THRCHG= 0.1000000000000000    
!DEBUG= -1.000000000000000    
!CFIT_CPHF=  0.000000000000000    
!RDOMAUX_CPHF=  3.000000000000000    
!THRAO_CPHF= 0.1000000000000000E-09
!THRMO_CPHF= 0.1000000000000000E-08
!THROV_CPHF= 0.1000000000000000E-11
!THRSW_CPHF= 0.1000000000000000E-09
!THRPROD_CPHF= 0.1000000000000000E-08
!THRAOPR_CPHF= 0.1000000000000000E-11
!CFIT_SCFGRD=  0.000000000000000    
!RDOMAUX_SCFGRD=  5.000000000000000    
!THRAO_SCFGRD= 0.1000000000000000E-09
!THRMO_SCFGRD= 0.1000000000000000E-08
!THROV_SCFGRD= 0.1000000000000000E-11
!THRSW_SCFGRD= 0.1000000000000000E-09
!THRPROD_SCFGRD= 0.1000000000000000E-08
!THRAOPR_SCFGRD= 0.1000000000000000E-11
!LOCFIT_SCF=  0.000000000000000    
!LOCFIT_MP2= -1.000000000000000    
_RIDOM=  0.000000000000000    
!CC2_METHOD=  0.000000000000000    
_BASIS2006=FALSE
_SVDDEL= -1.000000000000000    
_SVDDELA= -1.000000000000000    
_SVDDELP= -1.000000000000000    
_SVDDELF= -1.000000000000000    
_SVDDELS= -1.000000000000000    
_SVDDEL_ABS= -1.000000000000000    
_SVDDELA_ABS= -1.000000000000000    
_SVDDELP_ABS= -1.000000000000000    
_SVDDELF_ABS= -1.000000000000000    
_SVDDELS_ABS= -1.000000000000000    
_MAXBASIS=  0.000000000000000    
!OPT_CONICAL=  0.000000000000000    
!CLEARSP_JGRID=  0.000000000000000    
_4EXT_NDISKS=  1.000000000000000    
!ZMP=  0.000000000000000    
_MAXIT_ZMP=  500.0000000000000    
_MAXDIS_ZMP=  100.0000000000000    
_ACCU_ZMP=  14.00000000000000    
_SHIFTA_ZMP= -100.0000000000000    
!EMBEDFLAG=  1.000000000000000    
!EMBED=FALSE
!EMBED_F12=FALSE
!EMBEDNUC=  0.000000000000000    
_EMBEDENERGY=  0.000000000000000    
_KSPACETIME=  0.000000000000000    
_RSPACETIME=  0.000000000000000    
!EMBED_DFC=FALSE
!NUM_VOIDS=  0.000000000000000    
_IBODY=  0.000000000000000    
_EMBE_TOTAL=  0.000000000000000    
_EMBE_HF=  0.000000000000000    
_EMBE_CORR=  0.000000000000000    
!EDFT=  0.000000000000000    
_IFASTLATGRAD=  0.000000000000000    
_SINDEX=  0.000000000000000    
M_NAME=CASSCF(10,8)
M_CLOSED=  10.00000000000000    
M_OCC=  15.00000000000000    
GX1= -2.936634186000000    
GY1= -1.829065784000000    
GZ1=  2.251986461000000    
GX2= 0.7694964230000000    
GY2= -3.551551023000000    
GZ2=-0.8326132710000000    
GX3= 0.1065805460000000    
GY3= -1.239849221000000    
GZ3= 0.7377490260000000    
GX4= 0.7284893690000001    
GY4= -5.233407153000000    
GZ4= 0.3520559520000000    
GX5=-0.5822245770000000    
GY5= -3.802695607000000    
GZ5= -2.368771527000000    
GX6=  2.654309124000000    
GY6= -3.351618013000000    
GZ6= -1.631211473000000    
GX7=  1.429388738000000    
GY7= -1.002688610000000    
GZ7=  2.291859679000000    
GX8=  2.936634186000000    
GY8=  1.829065784000000    
GZ8= -2.251986461000000    
GX9=-0.7694964230000000    
GY9=  3.551551023000000    
GZ9= 0.8326132710000000    
GX10=-0.1065805460000000    
GY10=  1.239849221000000    
GZ10=-0.7377490260000000    
GX11=-0.7284893690000001    
GY11=  5.233407153000000    
GZ11=-0.3520559520000000    
GX12= 0.5822245770000000    
GY12=  3.802695607000000    
GZ12=  2.368771527000000    
GX13= -2.654309124000000    
GY13=  3.351618013000000    
GZ13=  1.631211473000000    
GX14= -1.429388738000000    
GY14=  1.002688610000000    
GZ14= -2.291859679000000    
_TRDMX=  0.000000000000000    
_TRDMY=  0.000000000000000    
_TRDMZ=  0.000000000000000    
_QMXX= -3.657711569067118    
_TRQMXX= 0.1684450037721989E-01
_QMYY=  1.378368491467455    
_TRQMYY=-0.3533860035753247E-01
_QMZZ=  2.279343077599592    
_TRQMZZ= 0.1849409998031263E-01
_QMXY= -4.039219616052353    
_TRQMXY=-0.1898598644842878E-01
_QMXZ=  7.486390347093788    
_TRQMXZ= 0.1922972640049886E-01
_QMYZ=  4.151869599412514    
_TRQMYZ=-0.8007942466080821E-01
_QMRR= -90.12292592889469    
_TRQMRR= 0.1022388288389342E-01
[Atoms] Angs
N     1    7        -1.5539998824       -0.9678999267        1.1916999101
C     2    6         0.4071999695       -1.8793998580       -0.4405999669
C     3    6         0.0563999959       -0.6560999503        0.3903999705
H     4    1         0.3854999711       -2.7693997908        0.1862999861
H     5    1        -0.3080999767       -2.0122998480       -1.2534999054
H     6    1         1.4045998941       -1.7735998658       -0.8631999346
H     7    1         0.7563999430       -0.5305999601        1.2127999084
N     8    7         1.5539998824        0.9678999267       -1.1916999101
C     9    6        -0.4071999695        1.8793998580        0.4405999669
C    10    6        -0.0563999959        0.6560999503       -0.3903999705
H    11    1        -0.3854999711        2.7693997908       -0.1862999861
H    12    1         0.3080999767        2.0122998480        1.2534999054
H    13    1        -1.4045998941        1.7735998658        0.8631999346
H    14    1        -0.7563999430        0.5305999601       -1.2127999084
[GTO]
  1 0
 s    8  1.00
  0.9046000000D+04  0.6996174134D-03
  0.1357000000D+04  0.5386054630D-02
  0.3093000000D+03  0.2739102119D-01
  0.8773000000D+02  0.1031505920D+00
  0.2856000000D+02  0.2785706633D+00
  0.1021000000D+02  0.4482948495D+00
  0.3838000000D+01  0.2780859284D+00
  0.7466000000D+00  0.1543156123D-01
 s    8  1.00
  0.9046000000D+04 -0.3049900960D-03
  0.1357000000D+04 -0.2408026379D-02
  0.3093000000D+03 -0.1194444873D-01
  0.8773000000D+02 -0.4892599291D-01
  0.2856000000D+02 -0.1344727247D+00
  0.1021000000D+02 -0.3151125777D+00
  0.3838000000D+01 -0.2428578325D+00
  0.7466000000D+00  0.1094382207D+01
 s    1  1.00
  0.2248000000D+00  0.1000000000D+01
 p    3  1.00
  0.1355000000D+02  0.5890567677D-01
  0.2917000000D+01  0.3204611067D+00
  0.7973000000D+00  0.7530420618D+00
 p    1  1.00
  0.2185000000D+00  0.1000000000D+01
 d    1  1.00
  0.8170000000D+00  0.1000000000D+01
  
  8 0
 s    8  1.00
  0.9046000000D+04  0.6996174134D-03
  0.1357000000D+04  0.5386054630D-02
  0.3093000000D+03  0.2739102119D-01
  0.8773000000D+02  0.1031505920D+00
  0.2856000000D+02  0.2785706633D+00
  0.1021000000D+02  0.4482948495D+00
  0.3838000000D+01  0.2780859284D+00
  0.7466000000D+00  0.1543156123D-01
 s    8  1.00
  0.9046000000D+04 -0.3049900960D-03
  0.1357000000D+04 -0.2408026379D-02
  0.3093000000D+03 -0.1194444873D-01
  0.8773000000D+02 -0.4892599291D-01
  0.2856000000D+02 -0.1344727247D+00
  0.1021000000D+02 -0.3151125777D+00
  0.3838000000D+01 -0.2428578325D+00
  0.7466000000D+00  0.1094382207D+01
 s    1  1.00
  0.2248000000D+00  0.1000000000D+01
 p    3  1.00
  0.1355000000D+02  0.5890567677D-01
  0.2917000000D+01  0.3204611067D+00
  0.7973000000D+00  0.7530420618D+00
 p    1  1.00
  0.2185000000D+00  0.1000000000D+01
 d    1  1.00
  0.8170000000D+00  0.1000000000D+01
  
  2 0
 s    8  1.00
  0.6665000000D+04  0.6915839628D-03
  0.1000000000D+04  0.5325796153D-02
  0.2280000000D+03  0.2706072104D-01
  0.6471000000D+02  0.1016568461D+00
  0.2106000000D+02  0.2745748236D+00
  0.7495000000D+01  0.4482943189D+00
  0.2797000000D+01  0.2849026107D+00
  0.5215000000D+00  0.1519485921D-01
 s    8  1.00
  0.6665000000D+04 -0.2932696527D-03
  0.1000000000D+04 -0.2318035474D-02
  0.2280000000D+03 -0.1149978604D-01
  0.6471000000D+02 -0.4682672701D-01
  0.2106000000D+02 -0.1284661688D+00
  0.7495000000D+01 -0.3012662725D+00
  0.2797000000D+01 -0.2556307023D+00
  0.5215000000D+00  0.1093793361D+01
 s    1  1.00
  0.1596000000D+00  0.1000000000D+01
 p    3  1.00
  0.9439000000D+01  0.5697925159D-01
  0.2002000000D+01  0.3132072115D+00
  0.5456000000D+00  0.7603767417D+00
 p    1  1.00
  0.1517000000D+00  0.1000000000D+01
 d    1  1.00
  0.5500000000D+00  0.1000000000D+01
  
  9 0
 s    8  1.00
  0.6665000000D+04  0.6915839628D-03
  0.1000000000D+04  0.5325796153D-02
  0.2280000000D+03  0.2706072104D-01
  0.6471000000D+02  0.1016568461D+00
  0.2106000000D+02  0.2745748236D+00
  0.7495000000D+01  0.4482943189D+00
  0.2797000000D+01  0.2849026107D+00
  0.5215000000D+00  0.1519485921D-01
 s    8  1.00
  0.6665000000D+04 -0.2932696527D-03
  0.1000000000D+04 -0.2318035474D-02
  0.2280000000D+03 -0.1149978604D-01
  0.6471000000D+02 -0.4682672701D-01
  0.2106000000D+02 -0.1284661688D+00
  0.7495000000D+01 -0.3012662725D+00
  0.2797000000D+01 -0.2556307023D+00
  0.5215000000D+00  0.1093793361D+01
 s    1  1.00
  0.1596000000D+00  0.1000000000D+01
 p    3  1.00
  0.9439000000D+01  0.5697925159D-01
  0.2002000000D+01  0.3132072115D+00
  0.5456000000D+00  0.7603767417D+00
 p    1  1.00
  0.1517000000D+00  0.1000000000D+01
 d    1  1.00
  0.5500000000D+00  0.1000000000D+01
  
  3 0
 s    8  1.00
  0.6665000000D+04  0.6915839628D-03
  0.1000000000D+04  0.5325796153D-02
  0.2280000000D+03  0.2706072104D-01
  0.6471000000D+02  0.1016568461D+00
  0.2106000000D+02  0.2745748236D+00
  0.7495000000D+01  0.4482943189D+00
  0.2797000000D+01  0.2849026107D+00
  0.5215000000D+00  0.1519485921D-01
 s    8  1.00
  0.6665000000D+04 -0.2932696527D-03
  0.1000000000D+04 -0.2318035474D-02
  0.2280000000D+03 -0.1149978604D-01
  0.6471000000D+02 -0.4682672701D-01
  0.2106000000D+02 -0.1284661688D+00
  0.7495000000D+01 -0.3012662725D+00
  0.2797000000D+01 -0.2556307023D+00
  0.5215000000D+00  0.1093793361D+01
 s    1  1.00
  0.1596000000D+00  0.1000000000D+01
 p    3  1.00
  0.9439000000D+01  0.5697925159D-01
  0.2002000000D+01  0.3132072115D+00
  0.5456000000D+00  0.7603767417D+00
 p    1  1.00
  0.1517000000D+00  0.1000000000D+01
 d    1  1.00
  0.5500000000D+00  0.1000000000D+01
  
 10 0
 s    8  1.00
  0.6665000000D+04  0.6915839628D-03
  0.1000000000D+04  0.5325796153D-02
  0.2280000000D+03  0.2706072104D-01
  0.6471000000D+02  0.1016568461D+00
  0.2106000000D+02  0.2745748236D+00
  0.7495000000D+01  0.4482943189D+00
  0.2797000000D+01  0.2849026107D+00
  0.5215000000D+00  0.1519485921D-01
 s    8  1.00
  0.6665000000D+04 -0.2932696527D-03
  0.1000000000D+04 -0.2318035474D-02
  0.2280000000D+03 -0.1149978604D-01
  0.6471000000D+02 -0.4682672701D-01
  0.2106000000D+02 -0.1284661688D+00
  0.7495000000D+01 -0.3012662725D+00
  0.2797000000D+01 -0.2556307023D+00
  0.5215000000D+00  0.1093793361D+01
 s    1  1.00
  0.1596000000D+00  0.1000000000D+01
 p    3  1.00
  0.9439000000D+01  0.5697925159D-01
  0.2002000000D+01  0.3132072115D+00
  0.5456000000D+00  0.7603767417D+00
 p    1  1.00
  0.1517000000D+00  0.1000000000D+01
 d    1  1.00
  0.5500000000D+00  0.1000000000D+01
  
  4 0
 s    3  1.00
  0.1301000000D+02  0.3349872639D-01
  0.1962000000D+01  0.2348008012D+00
  0.4446000000D+00  0.8136829579D+00
 s    1  1.00
  0.1220000000D+00  0.1000000000D+01
 p    1  1.00
  0.7270000000D+00  0.1000000000D+01
  
 11 0
 s    3  1.00
  0.1301000000D+02  0.3349872639D-01
  0.1962000000D+01  0.2348008012D+00
  0.4446000000D+00  0.8136829579D+00
 s    1  1.00
  0.1220000000D+00  0.1000000000D+01
 p    1  1.00
  0.7270000000D+00  0.1000000000D+01
  
  5 0
 s    3  1.00
  0.1301000000D+02  0.3349872639D-01
  0.1962000000D+01  0.2348008012D+00
  0.4446000000D+00  0.8136829579D+00
 s    1  1.00
  0.1220000000D+00  0.1000000000D+01
 p    1  1.00
  0.7270000000D+00  0.1000000000D+01
  
 12 0
 s    3  1.00
  0.1301000000D+02  0.3349872639D-01
  0.1962000000D+01  0.2348008012D+00
  0.4446000000D+00  0.8136829579D+00
 s    1  1.00
  0.1220000000D+00  0.1000000000D+01
 p    1  1.00
  0.7270000000D+00  0.1000000000D+01
  
  6 0
 s    3  1.00
  0.1301000000D+02  0.3349872639D-01
  0.1962000000D+01  0.2348008012D+00
  0.4446000000D+00  0.8136829579D+00
 s    1  1.00
  0.1220000000D+00  0.1000000000D+01
 p    1  1.00
  0.7270000000D+00  0.1000000000D+01
  
 13 0
 s    3  1.00
  0.1301000000D+02  0.3349872639D-01
  0.1962000000D+01  0.2348008012D+00
  0.4446000000D+00  0.8136829579D+00
 s    1  1.00
  0.1220000000D+00  0.1000000000D+01
 p    1  1.00
  0.7270000000D+00  0.1000000000D+01
  
  7 0
 s    3  1.00
  0.1301000000D+02  0.3349872639D-01
  0.1962000000D+01  0.2348008012D+00
  0.4446000000D+00  0.8136829579D+00
 s    1  1.00
  0.1220000000D+00  0.1000000000D+01
 p    1  1.00
  0.7270000000D+00  0.1000000000D+01
  
 14 0
 s    3  1.00
  0.1301000000D+02  0.3349872639D-01
  0.1962000000D+01  0.2348008012D+00
  0.4446000000D+00  0.8136829579D+00
 s    1  1.00
  0.1220000000D+00  0.1000000000D+01
 p    1  1.00
  0.7270000000D+00  0.1000000000D+01
 
 
[MO]
 Sym=      1.1
 Ene=     -15.6530
 Spin= Alpha
 Occup=    2.000000
1 0.70764637768631
2 0.000163277479739
3 -0.003197096191577
4 0.000872954012868
5 0.000179201879295
6 -0.000439147879694
7 -0.000914271120900
8 -0.000174157426312
9 0.000438301831233
10 -0.000050337683105
11 0.000155247975234
12 -0.000104910292128
13 -0.000095412884522
14 -0.000045053435121
15 -0.000097069536607
16 0.70764637768631
17 0.000163277479739
18 -0.003197096191577
19 -0.000872954012868
20 -0.000179201879295
21 0.000439147879694
22 0.000914271120900
23 0.000174157426312
24 -0.000438301831233
25 -0.000050337683105
26 0.000155247975234
27 -0.000104910292128
28 -0.000095412884522
29 -0.000045053435121
30 -0.000097069536607
31 -0.000032139173739
32 -0.000083774930306
33 -0.000184442510270
34 0.000035324515799
35 -0.000050072597685
36 -0.000055338391062
37 -0.000192556044400
38 0.000200545831973
39 0.000221395337068
40 0.000004633612630
41 -0.000009699822822
42 0.000005066210192
43 0.000011923175150
44 -0.000009321206927
45 0.000056287281435
46 -0.000032139173739
47 -0.000083774930306
48 -0.000184442510270
49 -0.000035324515799
50 0.000050072597685
51 0.000055338391062
52 0.000192556044400
53 -0.000200545831973
54 -0.000221395337068
55 0.000004633612630
56 -0.000009699822822
57 0.000005066210192
58 0.000011923175150
59 -0.000009321206927
60 0.000056287281435
61 -0.000169722034021
62 -0.000285033945050
63 0.000963839948303
64 -0.000221823825204
65 -0.000090611545550
66 0.000186565245402
67 -0.001133068866814
68 -0.000023429546207
69 0.000496652083495
70 0.000114621065323
71 -0.000087390869732
72 -0.000027230195591
73 0.000003598919479
74 -0.000087076334044
75 -0.000033380810815
76 -0.000169722034021
77 -0.000285033945050
78 0.000963839948303
79 0.000221823825204
80 0.000090611545550
81 -0.000186565245402
82 0.001133068866814
83 0.000023429546207
84 -0.000496652083495
85 0.000114621065323
86 -0.000087390869732
87 -0.000027230195591
88 0.000003598919479
89 -0.000087076334044
90 -0.000033380810815
91 -0.000012049606098
92 0.000059725561715
93 0.000032405968708
94 -0.000006187209203
95 -0.000061505587233
96 -0.000012049606098
97 0.000059725561715
98 -0.000032405968708
99 0.000006187209203
100 0.000061505587233
101 -0.000023171338417
102 -0.000023450789730
103 0.000038992529358
104 -0.000048614442839
105 -0.000037421987171
106 -0.000023171338417
107 -0.000023450789730
108 -0.000038992529358
109 0.000048614442839
110 0.000037421987171
111 0.000020128685077
112 0.000521118446125
113 -0.000063723945404
114 0.000023504973398
115 0.000027451645906
116 0.000020128685077
117 0.000521118446125
118 0.000063723945404
119 -0.000023504973398
120 -0.000027451645906
121 -0.000157463548228
122 0.000102536462241
123 0.000028938389191
124 -0.000028272975817
125 -0.000030195212339
126 -0.000157463548228
127 0.000102536462241
128 -0.000028938389191
129 0.000028272975817
130 0.000030195212339
 Sym=      1.2
 Ene=     -15.6427
 Spin= Alpha
 Occup=    2.000000
1 0.70750112735372
2 -0.008885680520952
3 -0.014390760853532
4 0.001995073483881
5 0.000460346488146
6 -0.001237127058958
7 -0.000370622073775
8 -0.000132855717293
9 0.000092144994944
10 -0.000099949993422
11 0.000160584519508
12 -0.000060634526085
13 -0.000124214596316
14 0.000011528172490
15 -0.000045882693272
16 -0.70750112735372
17 0.008885680520952
18 0.014390760853532
19 0.001995073483881
20 0.000460346488146
21 -0.001237127058958
22 -0.000370622073775
23 -0.000132855717293
24 0.000092144994944
25 0.000099949993422
26 -0.000160584519508
27 0.000060634526085
28 0.000124214596316
29 -0.000011528172490
30 0.000045882693272
31 -0.000094302403709
32 0.000005919152285
33 0.000620414815016
34 -0.000479559018848
35 0.000243570191257
36 0.000442358933548
37 -0.000354402585754
38 0.000302488366530
39 0.000343643261480
40 -0.000090731597496
41 0.000122276871075
42 -0.000031545273579
43 0.000036989162812
44 0.000029820435008
45 -0.000018790176160
46 0.000094302403709
47 -0.000005919152285
48 -0.000620414815016
49 -0.000479559018848
50 0.000243570191257
51 0.000442358933548
52 -0.000354402585754
53 0.000302488366530
54 0.000343643261480
55 0.000090731597496
56 -0.000122276871075
57 0.000031545273579
58 -0.000036989162812
59 -0.000029820435008
60 0.000018790176160
61 -0.000044711779732
62 -0.000321620899620
63 0.001315498857914
64 0.000136491699188
65 -0.000423053207400
66 -0.000830360624993
67 -0.001342639232065
68 -0.000285157550304
69 0.000496296082590
70 -0.000088136938142
71 0.000019690323170
72 0.000068446614972
73 0.000024373925860
74 0.000033112372108
75 0.000003339150085
76 0.000044711779732
77 0.000321620899620
78 -0.001315498857914
79 0.000136491699188
80 -0.000423053207400
81 -0.000830360624993
82 -0.001342639232065
83 -0.000285157550304
84 0.000496296082590
85 0.000088136938142
86 -0.000019690323170
87 -0.000068446614972
88 -0.000024373925860
89 -0.000033112372108
90 -0.000003339150085
91 0.000011020725120
92 -0.000046132312222
93 0.000037452094239
94 -0.000046229912955
95 -0.000007782144452
96 -0.000011020725120
97 0.000046132312222
98 0.000037452094239
99 -0.000046229912955
100 -0.000007782144452
101 -0.000076256533042
102 -0.000054087104077
103 0.000037458616762
104 -0.000000806621484
105 -0.000019353019099
106 0.000076256533042
107 0.000054087104077
108 0.000037458616762
109 -0.000000806621484
110 -0.000019353019099
111 -0.000397621137262
112 -0.000048783648311
113 0.000017856562412
114 0.000010665086252
115 0.000015283311606
116 0.000397621137262
117 0.000048783648311
118 0.000017856562412
119 0.000010665086252
120 0.000015283311606
121 -0.000627414603547
122 -0.000084741950733
123 0.000158935531917
124 0.000033509204307
125 -0.000072092448123
126 0.000627414603547
127 0.000084741950733
128 0.000158935531917
129 0.000033509204307
130 -0.000072092448123
 Sym=      2.1
 Ene=     -11.3276
 Spin= Alpha
 Occup=    2.000000
1 -0.000200707861490
2 -0.000305352132858
3 0.001599262646868
4 -0.000108281900772
5 -0.000007985372405
6 0.000066331885097
7 0.000531475753632
8 0.000090084796714
9 -0.000443254301580
10 -0.000015314138544
11 -0.000011811907936
12 0.000027126046479
13 -0.000002149022852
14 -0.000037418183613
15 -0.000029510492096
16 -0.000200707861490
17 -0.000305352132858
18 0.001599262646868
19 0.000108281900772
20 0.000007985372405
21 -0.000066331885097
22 -0.000531475753632
23 -0.000090084796714
24 0.000443254301580
25 -0.000015314138544
26 -0.000011811907936
27 0.000027126046479
28 -0.000002149022852
29 -0.000037418183613
30 -0.000029510492096
31 0.002362863991332
32 -0.000269111040067
33 0.002509547874283
34 0.000016324840089
35 0.000040120807957
36 0.000077768417448
37 -0.000773259105690
38 0.001019432796669
39 0.000373901665243
40 0.000018856524898
41 0.000037649429043
42 -0.000056505953941
43 0.000022909648418
44 -0.000024536396249
45 -0.000136480932522
46 0.002362863991332
47 -0.000269111040067
48 0.002509547874283
49 -0.000016324840089
50 -0.000040120807957
51 -0.000077768417448
52 0.000773259105690
53 -0.001019432796669
54 -0.000373901665243
55 0.000018856524898
56 0.000037649429043
57 -0.000056505953941
58 0.000022909648418
59 -0.000024536396249
60 -0.000136480932522
61 0.70874757480025
62 0.003121554717082
63 -0.006788247990669
64 -0.000032884973323
65 0.000210746715673
66 -0.000036870917759
67 0.001246338100666
68 0.001236545966934
69 0.000485551931234
70 -0.000088216263486
71 0.000008695898469
72 0.000079520365017
73 -0.000069175866795
74 0.000392137523038
75 0.000155247322383
76 0.70874757480025
77 0.003121554717082
78 -0.006788247990669
79 0.000032884973323
80 -0.000210746715673
81 0.000036870917759
82 -0.001246338100666
83 -0.001236545966934
84 -0.000485551931234
85 -0.000088216263486
86 0.000008695898469
87 0.000079520365017
88 -0.000069175866795
89 0.000392137523038
90 0.000155247322383
91 -0.000128260563432
92 0.000255013013113
93 0.000029004792123
94 0.000048221253520
95 0.000064959098843
96 -0.000128260563432
97 0.000255013013113
98 -0.000029004792123
99 -0.000048221253520
100 -0.000064959098843
101 -0.000158496399915
102 -0.000183316542841
103 0.000006899928892
104 0.000034721753040
105 0.000059013111509
106 -0.000158496399915
107 -0.000183316542841
108 -0.000006899928892
109 -0.000034721753040
110 -0.000059013111509
111 -0.000131128296411
112 0.000125162434483
113 0.000012819584000
114 -0.000031832180694
115 0.000032463635979
116 -0.000131128296411
117 0.000125162434483
118 -0.000012819584000
119 0.000031832180694
120 -0.000032463635979
121 -0.000087641966317
122 0.000842652840900
123 0.000132248624920
124 0.000099216731017
125 0.000144943070568
126 -0.000087641966317
127 0.000842652840900
128 -0.000132248624920
129 -0.000099216731017
130 -0.000144943070568
 Sym=      2.2
 Ene=     -11.3270
 Spin= Alpha
 Occup=    2.000000
1 -0.000128858080231
2 -0.000170758539359
3 0.001243705555900
4 0.000309749689754
5 0.000077594691414
6 -0.000176280225382
7 0.000678190495892
8 0.000179024100224
9 -0.000426973309722
10 0.000028300354317
11 -0.000049002347000
12 0.000020701992683
13 0.000029942123730
14 -0.000043810181493
15 0.000011656898705
16 0.000128858080231
17 0.000170758539359
18 -0.001243705555900
19 0.000309749689754
20 0.000077594691414
21 -0.000176280225382
22 0.000678190495892
23 0.000179024100224
24 -0.000426973309722
25 -0.000028300354317
26 0.000049002347000
27 -0.000020701992683
28 -0.000029942123730
29 0.000043810181493
30 -0.000011656898705
31 0.002667645480829
32 0.000029160125902
33 0.001774825513542
34 0.000013416427626
35 0.000149611595548
36 0.000026427923055
37 -0.000351229372064
38 0.000553014774693
39 0.000568193317672
40 0.000102526929072
41 -0.000055381558885
42 -0.000047145370187
43 0.000067093387833
44 0.000013588932741
45 -0.000015128823922
46 -0.002667645480829
47 -0.000029160125902
48 -0.001774825513542
49 0.000013416427626
50 0.000149611595548
51 0.000026427923055
52 -0.000351229372064
53 0.000553014774693
54 0.000568193317672
55 -0.000102526929072
56 0.000055381558885
57 0.000047145370187
58 -0.000067093387833
59 -0.000013588932741
60 0.000015128823922
61 0.70895090599645
62 0.003369319860855
63 -0.010775132597072
64 -0.000202571525275
65 -0.000036427894577
66 0.000194757416512
67 0.000474027585628
68 -0.001231647803848
69 0.001293132401632
70 -0.000208421068862
71 0.000047599509242
72 0.000160821559620
73 -0.000036057402705
74 0.000353469342896
75 0.000020480176055
76 -0.70895090599645
77 -0.003369319860855
78 0.010775132597072
79 -0.000202571525275
80 -0.000036427894577
81 0.000194757416512
82 0.000474027585628
83 -0.001231647803848
84 0.001293132401632
85 0.000208421068862
86 -0.000047599509242
87 -0.000160821559620
88 0.000036057402705
89 -0.000353469342896
90 -0.000020480176055
91 -0.000105298558321
92 -0.000234692365474
93 0.000020353028533
94 0.000016958859472
95 0.000005812730191
96 0.000105298558321
97 0.000234692365474
98 0.000020353028533
99 0.000016958859472
100 0.000005812730191
101 -0.000076668056764
102 0.000197256662599
103 -0.000007670755888
104 0.000121971140018
105 0.000037864698053
106 0.000076668056764
107 -0.000197256662599
108 -0.000007670755888
109 0.000121971140018
110 0.000037864698053
111 -0.000030738339204
112 0.000192919627263
113 -0.000010631490122
114 0.000053551375809
115 0.000004361583061
116 0.000030738339204
117 -0.000192919627263
118 -0.000010631490122
119 0.000053551375809
120 0.000004361583061
121 0.000153512831244
122 0.000741263332210
123 0.000187232624696
124 -0.000019995236737
125 0.000240656994803
126 -0.000153512831244
127 -0.000741263332210