[Molden Format]
[Molpro variables]
_NUMVAR=  668.0000000000000    
_PATCHLEVEL=  668.0000000000000    
_EV2006= 0.3674930886769165E-01
_EV= 0.3674932534394180E-01
_KJOULE= 0.3808798324128737E-03
_KJOULE/MOL= 0.3808798324128737E-03
_CM= 0.4556335267302901E-05
_CM-1= 0.4556335267302901E-05
_KCAL= 0.1593601117815568E-02
_KCAL/MOL= 0.1593601117815568E-02
_KELVIN2006= 0.3166828861084835E-05
_KELVIN= 0.3166814820820034E-05
_HERTZ2006= 0.1519829850815779E-15
_HERTZ= 0.1519829846011223E-15
_HZ2006= 0.1519829850815779E-15
_HZ= 0.1519829846011223E-15
_TOA2006= 0.5291772490000000    
_TOA= 0.5291772090000000    
_TOANG2006= 0.5291772490000000    
_TOANG= 0.5291772090000000    
_TORAD= 0.1745329251994330E-01
_TOCM=  219474.6306700000    
_TODEBYE=  2.541580000000000    
_TOEV2006=  27.21139610000000    
_TOEV=  27.21138390000000    
_TOHERTZ2006=  6579683899900000.    
_TOHERTZ=  6579683920700000.    
_TOHZ2006=  6579683899900000.    
_TOHZ=  6579683920700000.    
_TOK2006=  315773.3000000000    
_TOK=  315774.7000000000    
_TOKCAL=  627.5096000000000    
_TOKELVIN2006=  315773.3000000000    
_TOKELVIN=  315774.7000000000    
_TOKJ=  2625.500000000000    
_TOKJOULE=  2625.500000000000    
_ANG2006=  1.889725988578923    
_ANG=  1.889726131421507    
_ANGSTROM2006=  1.889725988578923    
_ANGSTROM=  1.889726131421507    
_IGNORE_UNDEF=  2.000000000000000    
_STRICTCHECK=  0.000000000000000    
_SEW_ONEEL=  0.000000000000000    
_CPPDONE=FALSE
_DKROLL_DONE=  0.000000000000000    
_FOCKDONE=TRUE
_GRADONE=FALSE
_HESSDONE=FALSE
_INTDONE=TRUE
_SCFDONE=TRUE
_MODUL_CUDA=FALSE
_MODUL_SLATER=FALSE
_MODUL_MRCC=FALSE
_MRCC_EXEC=
_FITC_AO_SAVED=FALSE
_FITC_MO_SAVED=FALSE
_SHARED_FS=TRUE
_LSTYP=SEWARD
_INTYP=INTS
_GEOMTYP=ZMAT
_GRADTYP=ALASKA
_DIRECT=FALSE
_DKROLL=FALSE
_DKHO=FALSE
_DKHP=FALSE
_SYNCM=  0.000000000000000    
_DFTNAME=  0.000000000000000    
_DFTFUNC=  0.000000000000000    
_BASIS=  0.000000000000000    
_BASISSETS=  0.000000000000000    
_ZSIGNX=  0.000000000000000    
_ZSIGNY=  0.000000000000000    
_ZSIGNZ=  0.000000000000000    
_ZCENTRE=  0.000000000000000    
_ZSYMEL=  0.000000000000000    
_ZPLANE=  0.000000000000000    
_ZUNIT=  0.000000000000000    
_ZORIENT=  1.000000000000000    
_CHARGE=  1.000000000000000    
_SCFCHARGE=  1.000000000000000    
_MCCHARGE=  1.000000000000000    
_CICHARGE=  1.000000000000000    
_CCCHARGE=  1.000000000000000    
_NELEC=  1.000000000000000    
!NELEC=  1.000000000000000    
_SCFNELEC=  1.000000000000000    
_MCNELEC=  1.000000000000000    
_CINELEC=  1.000000000000000    
_CCNELEC=  1.000000000000000    
_SPIN=  1.000000000000000    
!SPIN=  1.000000000000000    
_SCFSPIN=  1.000000000000000    
_MCSPIN=  1.000000000000000    
_CISPIN=  1.000000000000000    
_CCSPIN=  1.000000000000000    
_STATE=  1.000000000000000    
_SCFSTATE=  1.000000000000000    
_MCSTATE=  1.000000000000000    
_CISTATE=  1.000000000000000    
_SYMMETRY=  1.000000000000000    
!SYMMETRY=  1.000000000000000    
_SCFSYMMETRY=  1.000000000000000    
_MCSYMMETRY=  1.000000000000000    
_CISYMMETRY=  1.000000000000000    
_CCSYMMETRY=  1.000000000000000    
_SCFSYMM=  1.000000000000000    
_MCSYMM=  1.000000000000000    
_CISYMM=  1.000000000000000    
_CCSYMM=  1.000000000000000    
_SCFSYM=  1.000000000000000    
_MCSYM=  1.000000000000000    
_CISYM=  1.000000000000000    
_CCSYM=  1.000000000000000    
_WEIGHT=  1.000000000000000    
_MCWEIGHT=  1.000000000000000    
_LQUANT=  1.000000000000000    
_MCLQUANT=  1.000000000000000    
_OPTCONV=  1.000000000000000    
_QSDSTEP=  0.000000000000000    
_QSDIRC=  0.000000000000000    
_PROGRAM=HF-SCF
_CPUSTEP= 0.1999999999999999E-01
_SYSSTEP=  0.000000000000000    
_WALLSTEP= 0.9000000000000000E-01
!PERT= 0.9000000000000000E-01
!DFMP2= 0.9000000000000000E-01
!DFSCF=  0.000000000000000    
!DFHFENERG=  0.000000000000000    
!SCSGRD=  0.000000000000000    
_ATCHARGE=  0.000000000000000    
_BASINP=  610.0000000000000    
_CARTESIAN=  610.0000000000000    
_CFIT=  610.0000000000000    
_CFIT_FRED=  610.0000000000000    
_CFIT_FRED_THR=  610.0000000000000    
_CHII2=  610.0000000000000    
_CHIRS=  610.0000000000000    
_COEFF=  610.0000000000000    
_CPU2IDX_CFIT=  610.0000000000000    
_CPU3IDX_CFIT=  610.0000000000000    
_CPUASMBL_CFIT=  610.0000000000000    
_CPUBLAS1=  610.0000000000000    
_CPUBLAS2=  610.0000000000000    
_CPUBLAS3=  610.0000000000000    
_CPUINT_DTRAF=  610.0000000000000    
_CPUSOLVE_CFIT=  610.0000000000000    
_CPUTOT= 0.1400000000000000    
_CPUTR1_CFIT= 0.1400000000000000    
_CPUTR2_CFIT= 0.1400000000000000    
_CPUINV_CFIT= 0.1400000000000000    
_CPUFIT_CFIT= 0.1400000000000000    
_CPUTRANS_CFIT= 0.1400000000000000    
_CPUSCREEN_CFIT= 0.1400000000000000    
_CPUTRANS_DTRAF= 0.1400000000000000    
_CPUTRA_DTRAF= 0.1400000000000000    
_CPUTRIPL= 0.1400000000000000    
_SYSTRIPL= 0.1400000000000000    
_WALLTRIPL= 0.1400000000000000    
_CPUCCSD= 0.1400000000000000    
_SYSCCSD= 0.1400000000000000    
_WALLCCSD= 0.1400000000000000    
_CPUSORT=  0.000000000000000    
_SYSSORT= 0.2000000000000000E-01
_WALLSORT= 0.2000000048428774E-01
_CPUF12= 0.2000000048428774E-01
_SYSF12= 0.2000000048428774E-01
_WALLF12= 0.2000000048428774E-01
_CPUF12B= 0.2000000048428774E-01
_SYSF12B= 0.2000000048428774E-01
_WALLF12B= 0.2000000048428774E-01
_CPUTRANS= 0.2000000048428774E-01
_SYSTRANS= 0.2000000048428774E-01
_WALLTRANS= 0.2000000048428774E-01
_DALTON= 0.2000000048428774E-01
_DARW= 0.2000000048428774E-01
_DECAY= 0.2000000048428774E-01
_DELE_CFIT= 0.2000000048428774E-01
_DELG_CFIT= 0.2000000048428774E-01
_DELTA= 0.2000000048428774E-01
_DFTEXFAC=  1.000000000000000    
_DFTFAC=  1.000000000000000    
_DFTFUN=  1.000000000000000    
_DFTFUNS=  1.000000000000000    
_DMEX=  1.000000000000000    
_DMEY=  1.000000000000000    
_DMEZ=  1.000000000000000    
_DMNX=  1.000000000000000    
_DMNY=  1.000000000000000    
_DMNZ=  1.000000000000000    
_DMSCF=  1.000000000000000    
_DMSCF_Efield=  1.000000000000000    
_DMSCF_I=  1.000000000000000    
_DMSCF_J=  1.000000000000000    
_DMSCF_K=  1.000000000000000    
_DMSCF_N1=  1.000000000000000    
_DMSCF_N2=  1.000000000000000    
_DMSCF_NUC=  1.000000000000000    
_DMSCF_T=  1.000000000000000    
_DMSCF_V=  1.000000000000000    
_DMX=  0.000000000000000    
_DMY=  0.000000000000000    
_DMZ=  0.000000000000000    
_DMZCOR=  0.000000000000000    
_DM_RHO1=  0.000000000000000    
_DM_RVAL=  0.000000000000000    
_DUMMYATOMS=  0.000000000000000    
_FREQUENCIES=  0.000000000000000    
_EDISP=  0.000000000000000    
_EEDISP=  0.000000000000000    
_EINTRA=  0.000000000000000    
_EINTRA_R12=  0.000000000000000    
_EINTER_R12=  0.000000000000000    
_EIONIC=  0.000000000000000    
_EMP2=  0.000000000000000    
_EMP2_SING=  0.000000000000000    
_EMP2_TRIP=  0.000000000000000    
_EMP2_SINGLES=  0.000000000000000    
_EMP2_SINGLES_D=  0.000000000000000    
_EMP2_SCS=  0.000000000000000    
_EMP2_STRONG=  0.000000000000000    
_EMP2_CLOSE=  0.000000000000000    
_EMP2_WEAK=  0.000000000000000    
_EMP2_DIST=  0.000000000000000    
_ECSING=  0.000000000000000    
_ECTRIP=  0.000000000000000    
_ECSINGLES=  0.000000000000000    
_EF12=  0.000000000000000    
_EF12_SING=  0.000000000000000    
_EF12_TRIP=  0.000000000000000    
_ECSING_F12=  0.000000000000000    
_ECTRIP_F12=  0.000000000000000    
_EF12_RHFRELAX=  0.000000000000000    
_EF12_RHFRELAX_C=  0.000000000000000    
_EF12_CONVSUPPRS=  0.000000000000000    
_EF12_CONVSUPPRT=  0.000000000000000    
_EF12_SINGLES=  0.000000000000000    
_EF12_SINGLES_C=  0.000000000000000    
_EF12_SCS=  0.000000000000000    
_EF12_STRONG=  0.000000000000000    
_EF12_CLOSE=  0.000000000000000    
_EF12_WEAK=  0.000000000000000    
_EF12_DIST=  0.000000000000000    
_EF12S=  0.000000000000000    
_EF12S_SING=  0.000000000000000    
_EF12S_TRIP=  0.000000000000000    
_EF12S_SCS=  0.000000000000000    
_EF12S_STRONG=  0.000000000000000    
_EF12S_CLOSE=  0.000000000000000    
_EF12S_WEAK=  0.000000000000000    
_EF12S_DIST=  0.000000000000000    
_EF12D=  0.000000000000000    
_EF12D_SING=  0.000000000000000    
_EF12D_TRIP=  0.000000000000000    
_EF12D_SCS=  0.000000000000000    
_EF12D_STRONG=  0.000000000000000    
_EF12D_CLOSE=  0.000000000000000    
_EF12D_WEAK=  0.000000000000000    
_EF12D_DIST=  0.000000000000000    
_EF12F=  0.000000000000000    
_EF12F_SING=  0.000000000000000    
_EF12F_TRIP=  0.000000000000000    
_EF12F_SCS=  0.000000000000000    
_EF12F_STRONG=  0.000000000000000    
_EF12F_CLOSE=  0.000000000000000    
_EF12F_WEAK=  0.000000000000000    
_EF12F_DIST=  0.000000000000000    
_EMP2R12_2AD=  0.000000000000000    
_EMP2R12_2A=  0.000000000000000    
_EMP2R12_2AP=  0.000000000000000    
_EMP2R12_2SAD=  0.000000000000000    
_EMP2R12_2SA=  0.000000000000000    
_EMP2R12_2SAP=  0.000000000000000    
_EMP2R12_2B=  0.000000000000000    
_EMP2_R12=  0.000000000000000    
_EMP2_R12_A=  0.000000000000000    
_EMP2_R12_AP=  0.000000000000000    
_EMP2_R12_AD=  0.000000000000000    
_EMP2_R12_2A=  0.000000000000000    
_EMP2_R12_2SA=  0.000000000000000    
_EMP2_R12_2SAP=  0.000000000000000    
_EMP2_R12_2SAD=  0.000000000000000    
_EMP2_R12_2AP=  0.000000000000000    
_EMP2_R12_DIAG=  0.000000000000000    
_EMP2_R12_STRONG=  0.000000000000000    
_EMP2_R12_CLOSE=  0.000000000000000    
_EMP2_R12_WEAK=  0.000000000000000    
_EMP2_R12_DIST=  0.000000000000000    
_EMP2_R12_SING=  0.000000000000000    
_EMP2_R12_TRIP=  0.000000000000000    
_EMP2_R12_SCS=  0.000000000000000    
_EMP2R=  0.000000000000000    
_EMP3=  0.000000000000000    
_EMP3R=  0.000000000000000    
_EMP4=  0.000000000000000    
_ENERGC=  0.000000000000000    
_ENERGCL=  0.000000000000000    
_ENERG_CC=  0.000000000000000    
_ENERG_CV=  0.000000000000000    
_ENERG_VV=  0.000000000000000    
_ENERGD=  0.000000000000000    
_ENERGD0=  0.000000000000000    
_ENERGD1=  0.000000000000000    
_ENERGD2=  0.000000000000000    
_ENERGD3=  0.000000000000000    
_ENERGD4=  0.000000000000000    
_ENERGP=  0.000000000000000    
_ENERGP0=  0.000000000000000    
_ENERGP1=  0.000000000000000    
_ENERGP2=  0.000000000000000    
_ENERGP3=  0.000000000000000    
_ENERGP4=  0.000000000000000    
_ENERGR=  0.000000000000000    
_ENERGRR=  0.000000000000000    
_ENERGS=  0.000000000000000    
_ENERGT=  0.000000000000000    
_ENERGU=  0.000000000000000    
_ENERGW=  0.000000000000000    
_ENERGY=-0.5652012015477941    
_ENERGY_MP=-0.5652012015477941    
_ECBS=-0.5652012015477941    
_ECBSD=-0.5652012015477941    
_ENUC= 0.7151043364864864    
_EPDIST= 0.7151043364864864    
_EPDIST_R12= 0.7151043364864864    
_EPSUM= 0.7151043364864864    
_EPSUM_R12= 0.7151043364864864    
_EPS1= -1.280305538034282    
_EPS2= 0.6809105861086288    
_EPS3= 0.6809105861086288    
_EPS4= 0.6809105861086288    
_EPS5=-0.1953078942149384    
_EPS6=  1.478819528762753    
_EPS7=  1.478819528762753    
_EPS8=  1.478819528762753    
_EREL=  1.478819528762753    
_FLOPBLAS1=  1.478819528762753    
_FLOPBLAS2=  1.478819528762753    
_FLOPBLAS3=  1.478819528762753    
_FLOPDGM=  1.478819528762753    
_FLOPDGV=  1.478819528762753    
_FLOPMXM=  1.478819528762753    
_FLOPMXV=  1.478819528762753    
_FREQSTEP=  1.478819528762753    
!RS2GRSTATE=  1.478819528762753    
!RS2GRSYM=  1.478819528762753    
_GRADENERG=  1.478819528762753    
_GRADEXFAC=  9999.000000000000    
_GRADMETHOD=  2.000000000000000    
_GRADRECORD=  2.000000000000000    
_VIRIAL=  2.000000000000000    
_GRADX=  2.000000000000000    
_GRADY=  2.000000000000000    
_GRADZ=  2.000000000000000    
_GRADVAR=  2.000000000000000    
_GRID=  2.000000000000000    
_GRID_FREEZE=  2.000000000000000    
!GRID_FREEZE= -1.000000000000000    
!GRIDREC= -1.000000000000000    
_GRID_WEIGHT_CUT= -1.000000000000000    
_GRID_BLOCKSIZE= -1.000000000000000    
_GRID_SPARSITY= -1.000000000000000    
_GRID_RMAX= -1.000000000000000    
_GTOTAL= -1.000000000000000    
_HDIA= -1.000000000000000    
_HDIACI= -1.000000000000000    
_HEAT= -1.000000000000000    
_HTOTAL= -1.000000000000000    
_INCR_CORR= -1.000000000000000    
_INCR_COUNT= -1.000000000000000    
_INCR_READY= -1.000000000000000    
_ISCHI= -1.000000000000000    
_ITERATIONS=  7.000000000000000    
_KFIT=  7.000000000000000    
_LASTNELEC=  1.000000000000000    
_LASTSPIN=  1.000000000000000    
_LASTSYM=  1.000000000000000    
_LL=  1.000000000000000    
_MASSV=  1.000000000000000    
_MIN_ITER=  1.000000000000000    
_MIXANG=  1.000000000000000    
_MIXANGCI=  1.000000000000000    
_MPP_PROG=  0.000000000000000    
_MSENERGY=  0.000000000000000    
_NACME=  0.000000000000000    
_NBAS_CFIT=  0.000000000000000    
_NEWREC=  0.000000000000000    
_NGRID=  0.000000000000000    
_NPROC_MPP=  1.000000000000000    
_NPROC_SMP=  1.000000000000000    
_NUMSTEP=  0.000000000000000    
_OPNUC=  0.000000000000000    
_OPTCONVMX=  0.000000000000000    
_OPTCONVRMS=  0.000000000000000    
_OPTGRAD=  0.000000000000000    
_OPTGRADMX=  0.000000000000000    
_OPTGRADRMS=  0.000000000000000    
_OPTRMSMAX=  0.000000000000000    
_OPTSTEP=  0.000000000000000    
_ORBITAL=  2100.200000000000    
_PAOINT_CFIT=  2100.200000000000    
_PENALTY=  2100.200000000000    
_PH1INT_CFIT=  2100.200000000000    
_PH1VEC_CFIT=  2100.200000000000    
_PH2INT_CFIT=  2100.200000000000    
_PHASE=  2100.200000000000    
_PI=  3.141592653589793    
_PMOINT_CFIT=  3.141592653589793    
_PMOVEC_CFIT=  3.141592653589793    
_POISSON_ECORR=  3.141592653589793    
_POISSON_ERROR=  3.141592653589793    
_POLXX=  3.141592653589793    
_POLXY=  3.141592653589793    
_POLXZ=  3.141592653589793    
_POLYY=  3.141592653589793    
_POLYZ=  3.141592653589793    
_POLZZ=  3.141592653589793    
_POLYX=  3.141592653589793    
_POLZX=  3.141592653589793    
_POLZY=  3.141592653589793    
_POVINT_CFIT=  3.141592653589793    
_ROOT=  3.141592653589793    
_RPDIST=  3.141592653589793    
_RPMIN=  3.141592653589793    
_RPMAX=  3.141592653589793    
_EPCON=  3.141592653589793    
_ECDIAG=  3.141592653589793    
_EPDIAG=  3.141592653589793    
!MCACT=  3.141592653589793    
!MCCLOSED=  3.141592653589793    
!MCFREEZE=  3.141592653589793    
!MCMS2=  3.141592653589793    
!MCNEL=  3.141592653589793    
!MCNSTSYM=  3.141592653589793    
!MCSTATE=  3.141592653589793    
!MCSYM=  3.141592653589793    
!MCWEIGHT=  3.141592653589793    
_SEIG_MIN= 0.1453330141254184E-01
_SEWPROP=TRUE
_SMAT=TRUE
_SMATCI=TRUE
_SSQUARED=TRUE
_STATUS=  1.000000000000000    
_SYSBLAS1=  1.000000000000000    
_SYSBLAS2=  1.000000000000000    
_SYSBLAS3=  1.000000000000000    
_SYSTEM_RC=  1.000000000000000    
_SYSTOT= 0.4000000000000000E-01
_T1DIAG= 0.4000000000000000E-01
_D1DIAG= 0.4000000000000000E-01
_TASK= 0.4000000000000000E-01
_TROV= 0.4000000000000000E-01
_HMAT= 0.4000000000000000E-01
_UMAT= 0.4000000000000000E-01
_UMATCI= 0.4000000000000000E-01
_VERSION=  2010001.000000000    
_WALLBLAS1=  2010001.000000000    
_WALLBLAS2=  2010001.000000000    
_WALLBLAS3=  2010001.000000000    
_WALLTOT= 0.3800000000000000    
_ZPE= 0.3800000000000000    
!DFBASIS_COUL= 0.3800000000000000    
!DFBASIS_EXCH= 0.3800000000000000    
!DFBASIS_MP2= 0.3800000000000000    
!DFBASIS_F12K= 0.3800000000000000    
!DFBASIS_CCSD= 0.3800000000000000    
!RIBASIS_MP2= 0.3800000000000000    
!RIBASIS_EXCH= 0.3800000000000000    
_DATE=27-Apr-18
_LASTORB=RHF
_MACHINE=Linux-2.6.32-642.15.1.el6.x86_64/toren.open.ac.uk(x86_64) 64 bit serial version
_METHODC=
_METHODT=
_OUTPUT=/home/stem/jb37974/Work/180427-molpro/h2+.xml
_PGROUP=D2h
_SEMI=
_TIME=15:15:15
_ANSATZ=
_LIBMOL=/data/jdgorfinkiel/MOLPRO/Molpro.2010.1.26/bin/../lib/
_VDIAG=
_UDIAG=
!AOINTADDSC=
_TRANSFORM_FORCE=
_SOLVE_ITER=
_VSCF_FREQ=
_VMCSCF_FREQ=
_VCI_FREQ=
_VMP2_FREQ=
_VSCF_INTENS=
_VMCSCF_INTENS=
_VCI_INTENS=
_VMP2_INTENS=
!SURFREC=  0.000000000000000    
!POLYREC=  0.000000000000000    
!DIPREC=  0.000000000000000    
!VSCFREC=  0.000000000000000    
!VCIREC=  0.000000000000000    
!PVCIREC=  0.000000000000000    
!VMP2REC=  0.000000000000000    
!VMCSCFREC=  0.000000000000000    
!GAREC=  0.000000000000000    
!SCFORB=  21002.00000000000    
!MCORB=  21002.00000000000    
!CIOCC=  21002.00000000000    
!CICORE=  21002.00000000000    
!CICLOS=  21002.00000000000    
!UNO_OCC=  21002.00000000000    
!UNO_CLOSED=  21002.00000000000    
!CINSTSYM=  21002.00000000000    
!CIISTSYM=  21002.00000000000    
!CIISTMS2=  21002.00000000000    
!CIISTNEL=  21002.00000000000    
!CIMS2=  21002.00000000000    
!NEWMOL= -1.000000000000000    
!NEWSYM= -1.000000000000000    
!NEWORIENT= -1.000000000000000    
_SLFILES=slscratch
_NGSSTO=  9.000000000000000    
_SIN=SIN
_COS=COS
_TAN=TAN
_ACOS=ACOS
_ASIN=ASIN
_ATAN=ATAN
_COSH=COSH
_SINH=SINH
_TANH=TANH
_ABS=ABS
_MOD=MOD
_ERF=ERF
_REFC=REFC
_ERFC=ERFC
_HYPOT=HYPOT
_J0=J0
_J1=J1
_JN=JN
_GAMMA=GAMMA
_LGAMMA=LGAMMA
_Y0=Y0
_Y1=Y1
_YN=YN
_EXP=EXP
_LOG=LOG
_LOG10=LOG10
_SQRT=SQRT
_INT=INT
_NINT=NINT
_MAX=MAX
_MIN=MIN
_COSMO=  0.000000000000000    
_COSMOIT=  0.000000000000000    
_COSMOES=  0.000000000000000    
_COSMOEDS=  0.000000000000000    
_COSMOEC=  0.000000000000000    
_COSMOEDCORR=  0.000000000000000    
_FEPSI=  1.000000000000000    
_SL_IsMM=  0.000000000000000    
_SL_NSYM=  0.000000000000000    
_SL_System_BitSw=  0.000000000000000    
_SL_Unique_atoms=  0.000000000000000    
_SL_Last_energy=  0.000000000000000    
_SL_GRAD=  0.000000000000000    
_SL_MAXUPD_Hess=  5.000000000000000    
_SL_N_PRINT_COD=  5.000000000000000    
_SL_PRINT_CODES=  0.000000000000000    
_SL_BasType=  0.000000000000000    
_SL_Energy_Pred=  0.000000000000000    
_SL_New_Coords=  0.000000000000000    
_SL_Total_Nuclea=  0.000000000000000    
_SL_Highest_Mltp=  0.000000000000000    
_SL_Ref_Geom=  0.000000000000000    
_CONFIG=  0.000000000000000    
_OCC=  0.000000000000000    
_CORE=  0.000000000000000    
_CLOSED=  0.000000000000000    
_SCFOCC=  0.000000000000000    
_SCFCLOSED=  0.000000000000000    
_SCFCORE=  0.000000000000000    
_MCOCC=  0.000000000000000    
_MCCLOSED=  0.000000000000000    
_MCFROZEN=  0.000000000000000    
_MCCORE=  0.000000000000000    
_CIOCC=  0.000000000000000    
_CICLOSED=  0.000000000000000    
_CICORE=  0.000000000000000    
_CCOCC=  0.000000000000000    
_CCCLOSED=  0.000000000000000    
_CCCORE=  0.000000000000000    
_SRXC=  0.000000000000000    
_SRC=  0.000000000000000    
_SRX=  0.000000000000000    
_SRH=  0.000000000000000    
_E_EXCHANGE=  0.000000000000000    
!LATTICE= -1.000000000000000    
!NEWLATTICE=  0.000000000000000    
!LATGRAD_VAR=FALSE
!SEW_LATTICE=  1.000000000000000    
_LATGRADX=  1.000000000000000    
_LATGRADY=  1.000000000000000    
_LATGRADZ=  1.000000000000000    
!SCALTABINIT=  1.000000000000000    
!LOCAL=  0.000000000000000    
!SAVEOCC=  0.000000000000000    
!SAVEDOM= -1.000000000000000    
!RESTDOM= -1.000000000000000    
!SAVEDOM_HF= -1.000000000000000    
!RESTDOM_HF= -1.000000000000000    
!HESSREC=  0.000000000000000    
!FREQREC=  0.000000000000000    
!NMODREC=  0.000000000000000    
!GTASKS=  0.000000000000000    
!HTASKS=  0.000000000000000    
!THRCHG= 0.1000000000000000    
!DEBUG= -1.000000000000000    
!CFIT_CPHF=  0.000000000000000    
!RDOMAUX_CPHF=  3.000000000000000    
!THRAO_CPHF= 0.1000000000000000E-09
!THRMO_CPHF= 0.1000000000000000E-08
!THROV_CPHF= 0.1000000000000000E-11
!THRSW_CPHF= 0.1000000000000000E-09
!THRPROD_CPHF= 0.1000000000000000E-08
!THRAOPR_CPHF= 0.1000000000000000E-11
!CFIT_SCFGRD=  0.000000000000000    
!RDOMAUX_SCFGRD=  5.000000000000000    
!THRAO_SCFGRD= 0.1000000000000000E-09
!THRMO_SCFGRD= 0.1000000000000000E-08
!THROV_SCFGRD= 0.1000000000000000E-11
!THRSW_SCFGRD= 0.1000000000000000E-09
!THRPROD_SCFGRD= 0.1000000000000000E-08
!THRAOPR_SCFGRD= 0.1000000000000000E-11
!LOCFIT_SCF=  0.000000000000000    
!LOCFIT_MP2= -1.000000000000000    
_RIDOM=  0.000000000000000    
_FCI_METHOD=  0.000000000000000    
!CC2_METHOD=  0.000000000000000    
_BASIS2006=FALSE
_SVDDEL= -1.000000000000000    
_SVDDELA= -1.000000000000000    
_SVDDELP= -1.000000000000000    
_SVDDELF= -1.000000000000000    
_SVDDELS= -1.000000000000000    
_SVDDEL_ABS= -1.000000000000000    
_SVDDELA_ABS= -1.000000000000000    
_SVDDELP_ABS= -1.000000000000000    
_SVDDELF_ABS= -1.000000000000000    
_SVDDELS_ABS= -1.000000000000000    
_MAXBASIS=  0.000000000000000    
!OPT_CONICAL=  0.000000000000000    
!CLEARSP_JGRID=  0.000000000000000    
_SHLDTENSOR=  0.000000000000000    
_OMEGAF_S=  0.000000000000000    
_OMEGAF_T=  0.000000000000000    
_RE=  0.000000000000000    
_BE=  0.000000000000000    
_AE=  0.000000000000000    
_WE=  0.000000000000000    
_WEXE=  0.000000000000000    
_WEYE=  0.000000000000000    
_METHOD=  0.000000000000000    
_C0=  0.000000000000000    
_C0R=  0.000000000000000    
VDZ=  0.000000000000000    
SIS=  0.000000000000000    
GX1=  0.000000000000000    
GY1=  0.000000000000000    
GZ1=-0.6991986686259575    
GX2=  0.000000000000000    
GY2=  0.000000000000000    
GZ2= 0.6991986686259575    
[Atoms] Angs
H     1    1         0.0000000000        0.0000000000       -0.3700000000
H     2    1         0.0000000000        0.0000000000        0.3700000000
[GTO]
  1 0
 s    4  1.00
  0.1301000000D+02  0.1968498999D-01
  0.1962000000D+01  0.1379769298D+00
  0.4446000000D+00  0.4781477569D+00
  0.1220000000D+00  0.5012397451D+00
 s    4  1.00
  0.1301000000D+02  0.0000000000D+00
  0.1962000000D+01  0.0000000000D+00
  0.4446000000D+00  0.0000000000D+00
  0.1220000000D+00  0.1000000000D+01
 p    1  1.00
  0.7270000000D+00  0.1000000000D+01
  
  2 0
 s    4  1.00
  0.1301000000D+02  0.1968498999D-01
  0.1962000000D+01  0.1379769298D+00
  0.4446000000D+00  0.4781477569D+00
  0.1220000000D+00  0.5012397451D+00
 s    4  1.00
  0.1301000000D+02  0.0000000000D+00
  0.1962000000D+01  0.0000000000D+00
  0.4446000000D+00  0.0000000000D+00
  0.1220000000D+00  0.1000000000D+01
 p    1  1.00
  0.7270000000D+00  0.1000000000D+01
 
 
[MO]
 Sym=      1.1
 Ene=      -1.2803
 Spin= Alpha
 Occup=    1.000000
1 0.85303055037378
2 -0.37188208208943
3 0.0
4 0.0
5 0.048192872943998
6 0.85303055037378
7 -0.37188208208943
8 0.0
9 0.0
10 -0.048192872943998
 Sym=      1.5
 Ene=      -0.1953
 Spin= Alpha
 Occup=    0.000000
1 0.58706222847314
2 1.26912560139645
3 0.0
4 0.0
5 -0.049126082767268
6 -0.58706222847314
7 -1.26912560139645
8 0.0
9 0.0
10 -0.049126082767268
 Sym=      2.1
 Ene=       0.0505
 Spin= Alpha
 Occup=    0.000000
1 -1.02402293074638
2 1.24866624214001
3 0.0
4 0.0
5 -0.037897822202833
6 -1.02402293074638
7 1.24866624214001
8 0.0
9 0.0
10 0.037897822202833
 Sym=      2.5
 Ene=       0.4030
 Spin= Alpha
 Occup=    0.000000
1 -1.38002787264012
2 2.69152489969244
3 0.0
4 0.0
5 0.32679566869859
6 1.38002787264012
7 -2.69152489969244
8 0.0
9 0.0
10 0.32679566869859
 Sym=      1.2
 Ene=       0.6809
 Spin= Alpha
 Occup=    0.000000
1 0.0
2 0.0
3 0.57904424566029
4 0.0
5 0.0
6 0.0
7 0.0
8 0.57904424566029
9 0.0
10 0.0
 Sym=      1.3
 Ene=       0.6809
 Spin= Alpha
 Occup=    0.000000
1 0.0
2 0.0
3 0.0
4 0.57904424566029
5 0.0
6 0.0
7 0.0
8 0.0
9 0.57904424566029
10 0.0
 Sym=      3.1
 Ene=       1.3677
 Spin= Alpha
 Occup=    0.000000
1 -0.82777933992865
2 0.66549054357485
3 0.0
4 0.0
5 0.72474810378411
6 -0.82777933992865
7 0.66549054357485
8 0.0
9 0.0
10 -0.72474810378411
 Sym=      1.6
 Ene=       1.4788
 Spin= Alpha
 Occup=    0.000000
1 0.0
2 0.0
3 0.99134997115557
4 0.0
5 0.0
6 0.0
7 0.0
8 -0.99134997115557
9 0.0
10 0.0
 Sym=      1.7
 Ene=       1.4788
 Spin= Alpha
 Occup=    0.000000
1 0.0
2 0.0
3 0.0
4 0.99134997115557
5 0.0
6 0.0
7 0.0
8 0.0
9 -0.99134997115557
10 0.0
 Sym=      3.5
 Ene=       2.9838
 Spin= Alpha
 Occup=    0.000000
1 4.51526047697547
2 -2.15683617404159
3 0.0
4 0.0
5 2.04132382105213
6 -4.51526047697547
7 2.15683617404159
8 0.0
9 0.0
10 2.04132382105213
