[Molden Format]
[Molpro variables]
_NUMVAR=  808.0000000000000    
_AVOGAD= 0.6022136736000000E+24
_BOLTZ= 0.1380658000000000E-22
_CLIGHT=  29979245800.00000    
_EV2006= 0.3674930886769165E-01
_EV= 0.3674932534394180E-01
_ENULL= 0.8854187817000000E-11
_KJOULE= 0.3808798324128737E-03
_KJOULE/MOL= 0.3808798324128737E-03
_CM= 0.4556335267302901E-05
_CM-1= 0.4556335267302901E-05
_DEB2SI= 0.3335641000000000E-29
_AMU2AU=  1822.888390000000    
_KCAL= 0.1593601117815568E-02
_KCAL/MOL= 0.1593601117815568E-02
_KELVIN2006= 0.3166828861084835E-05
_KELVIN= 0.3166814820820034E-05
_JOULE= 0.4359748200000000E-17
_HERTZ2006= 0.1519829850815779E-15
_HERTZ= 0.1519829846011223E-15
_HZ2006= 0.1519829850815779E-15
_HZ= 0.1519829846011223E-15
_JPCAL=  4.184000000000000    
_PLANCK= 0.6626075540000000E-33
_TOA2006= 0.5291772490000000    
_TOA= 0.5291772090000000    
_TOANG2006= 0.5291772490000000    
_TOANG= 0.5291772090000000    
_TORAD= 0.1745329251994330E-01
_TOCM=  219474.6306700000    
_TODEBYE=  2.541580000000000    
_TOEV2006=  27.21139610000000    
_TOE= 0.4803242000000000E-09
_TOEV=  27.21138390000000    
_TOHERTZ2006=  6579683899900000.    
_TOHERTZ=  6579683920700000.    
_TOHZ2006=  6579683899900000.    
_TOHZ=  6579683920700000.    
_TOK2006=  315773.3000000000    
_TOK=  315774.7000000000    
_TOKCAL=  627.5096000000000    
_TOKELVIN2006=  315773.3000000000    
_TOKELVIN=  315774.7000000000    
_TOKJ=  2625.500000000000    
_TOKJOULE=  2625.500000000000    
_TOKG= 0.1660565586000000E-26
_ANG2006=  1.889725988578923    
_ANG=  1.889726131421507    
_ANGSTROM2006=  1.889725988578923    
_ANGSTROM=  1.889726131421507    
_RPAREF=  0.000000000000000    
_RPADISS=  0.000000000000000    
_IGNORE_UNDEF=  2.000000000000000    
_STRICTCHECK=  0.000000000000000    
_SEW_ONEEL=  0.000000000000000    
_CPPDONE=FALSE
_DKROLL_DONE=  0.000000000000000    
_FOCKDONE=TRUE
_GRADONE=FALSE
_HESSDONE=FALSE
_INTDONE=TRUE
_SCFDONE=TRUE
_MODUL_BLOCK=FALSE
_MODUL_CUDA=FALSE
_MODUL_SLATER=FALSE
_MODUL_MRCC=FALSE
_MODUL_NBO6=FALSE
_MODUL_NECI=TRUE
_MODUL_AIMS=TRUE
_MRCC_EXEC=
_FITC_AO_SAVED=FALSE
_FITC_MO_SAVED=FALSE
_SHARED_FS=TRUE
_LSTYP=SEWARD
_INTYP=INTS
_GEOMTYP=ZMAT
_GRADTYP=ALASKA
_DIRECT=FALSE
_DKHO= -1.000000000000000    
_SYNCM=  0.000000000000000    
_BASIS=USERDEF
_ZORIENT=  1.000000000000000    
_NELEC=  42.00000000000000    
!SPIN=  0.000000000000000    
_QSDSTEP=  0.000000000000000    
_QSDIRC=  0.000000000000000    
_PROGRAM=HF-SCF
_CPUSTEP= 0.1600000000000001    
_SYSSTEP= 0.3000000000000000E-01
_WALLSTEP= 0.5000000000000000    
!DFSCF=  0.000000000000000    
!SCSGRD=  0.000000000000000    
_BASINP=  610.0000000000000    
_CPUTOT=  2.130000000000000    
_CPUSORT= 0.2600000000000000    
_SYSSORT= 0.1000000000000000    
_WALLSORT= 0.4100000001490116    
_DFTEXFAC=  1.000000000000000    
_DMX=  0.000000000000000    
_DMY=  0.000000000000000    
_DMZ=  0.000000000000000    
_DMX_SCF=  0.000000000000000    
_DMY_SCF=  0.000000000000000    
_DMZ_SCF=  0.000000000000000    
_EHOMO=-0.3326993314474254    
_ELUMO= 0.1358173768995472    
_ENERGY= -230.7214163472580    
_ENUC=  202.7384749397557    
_EPS1= -11.24123780416349    
_EPS2= -11.24070059302457    
_EPS3= -11.24069718785664    
_EPS4= -11.23953363747864    
_EPS5=-0.4968401752822969    
_EPS6=-0.3327022478738640    
_EPS7=-0.3326993314474254    
_EPS8= 0.1358173768995472    
_GRADEXFAC=  9999.000000000000    
_GRADMETHOD=  1.000000000000000    
_NMRMETHOD=  0.000000000000000    
!GRID_FREEZE= -1.000000000000000    
_ITERATIONS=  8.000000000000000    
_LASTNELEC=  42.00000000000000    
_LASTSPIN=  0.000000000000000    
_LASTSYM=  1.000000000000000    
_MPP_PROG=  0.000000000000000    
_NPROC_MPP=  1.000000000000000    
_NPROC_MPPX=  1.000000000000000    
_NPROC_SMP=  16.00000000000000    
_NUMSTEP=  0.000000000000000    
_ORBITAL=  2100.200000000000    
_PI=  3.141592653589793    
_SEIG_MIN= 0.3750168419060033E-03
_SEWPROP=TRUE
_STATUS=  1.000000000000000    
_SYSTOT= 0.1700000000000000    
_VERSION=  2012001.000000000    
_WALLTOT=  4.040000000000000    
_DATE=24-Jan-19
_LASTORB=RHF
_MACHINE=Linux-4.9.0-8-amd64/nympha18.meta.zcu.cz(x86_64) (16 PROC) 64 bit serial version
_OUTPUT=/auto/brno2/home/masiz4am/git/UKRmol-in/tests/suite/D2h_target_HF3/molpro.xml
_PGROUP=D2h
_TIME=16:18:01
_LIBMOL=/afs/ics.muni.cz/software/molpro-2012.1/molprop_2012_1_Linux_x86_64_i8/lib/
!VIBCNT=  0.000000000000000    
!RGHFCNT=  0.000000000000000    
!SURFREC=  0.000000000000000    
!POLYREC=  0.000000000000000    
!DIPREC=  0.000000000000000    
!VSCFREC=  0.000000000000000    
!VCIREC=  0.000000000000000    
!PVCIREC=  0.000000000000000    
!VMP2REC=  0.000000000000000    
!VMCSCFREC=  0.000000000000000    
!VMRCIREC=  0.000000000000000    
!VIBINFO=  0.000000000000000    
!GAREC=  0.000000000000000    
!SCFORB=  21002.00000000000    
!NEWMOL= -1.000000000000000    
!NEWSYM= -1.000000000000000    
_SLFILES=slscratch
_NGSSTO=  9.000000000000000    
_SIN=SIN
_COS=COS
_TAN=TAN
_ACOS=ACOS
_ASIN=ASIN
_ATAN=ATAN
_COSH=COSH
_SINH=SINH
_TANH=TANH
_ABS=ABS
_MOD=MOD
_ERF=ERF
_REFC=REFC
_ERFC=ERFC
_HYPOT=HYPOT
_J0=J0
_J1=J1
_JN=JN
_GAMMA=GAMMA
_LGAMMA=LGAMMA
_Y0=Y0
_Y1=Y1
_YN=YN
_EXP=EXP
_LOG=LOG
_LOG10=LOG10
_SQRT=SQRT
_INT=INT
_NINT=NINT
_MAX=MAX
_MIN=MIN
_COSMO=  0.000000000000000    
_COSMOIT=  0.000000000000000    
_COSMOES=  0.000000000000000    
_COSMOEDS=  0.000000000000000    
_COSMOEC=  0.000000000000000    
_COSMOEDCORR=  0.000000000000000    
_FEPSI=  1.000000000000000    
_SL_IsMM=  0.000000000000000    
_SL_NSYM=  8.000000000000000    
_SL_System_BitSw=  0.000000000000000    
_SL_Unique_atoms=  0.000000000000000    
_SL_GRAD=  0.000000000000000    
_SL_MAXUPD_Hess=  5.000000000000000    
_SL_N_PRINT_COD=  5.000000000000000    
_SL_PRINT_CODES=  0.000000000000000    
_SL_BasType=  0.000000000000000    
_SL_Energy_Pred=  0.000000000000000    
_SL_New_Coords=  0.000000000000000    
_SL_Total_Nuclea=  0.000000000000000    
_SL_Highest_Mltp=  0.000000000000000    
_SL_Ref_Geom=  0.000000000000000    
_SL_Symmetry_ope=  1.000000000000000    
_SL_agrad=  0.000000000000000    
_SL_GrdMax=  0.000000000000000    
_SL_GrdNorm=  0.000000000000000    
_SL_GrdRMS=  0.000000000000000    
!LATTICE= -1.000000000000000    
!NEWLATTICE=  0.000000000000000    
!LATGRAD_VAR=FALSE
!SEW_LATTICE=  1.000000000000000    
!LOCAL=  0.000000000000000    
!SAVEDOM= -1.000000000000000    
!RESTDOM= -1.000000000000000    
!SAVEDOM_HF= -1.000000000000000    
!RESTDOM_HF= -1.000000000000000    
!HESSREC=  0.000000000000000    
!FREQREC=  0.000000000000000    
!NMODREC=  0.000000000000000    
!GTASKS=  0.000000000000000    
!HTASKS=  0.000000000000000    
!THRCHG= 0.1000000000000000    
!DEBUG= -1.000000000000000    
!CFIT_CPHF=  0.000000000000000    
!RDOMAUX_CPHF=  3.000000000000000    
!THRAO_CPHF= 0.1000000000000000E-09
!THRMO_CPHF= 0.1000000000000000E-08
!THROV_CPHF= 0.1000000000000000E-11
!THRSW_CPHF= 0.1000000000000000E-09
!THRPROD_CPHF= 0.1000000000000000E-08
!THRAOPR_CPHF= 0.1000000000000000E-11
!CFIT_SCFGRD=  0.000000000000000    
!RDOMAUX_SCFGRD=  5.000000000000000    
!THRAO_SCFGRD= 0.1000000000000000E-09
!THRMO_SCFGRD= 0.1000000000000000E-08
!THROV_SCFGRD= 0.1000000000000000E-11
!THRSW_SCFGRD= 0.1000000000000000E-09
!THRPROD_SCFGRD= 0.1000000000000000E-08
!THRAOPR_SCFGRD= 0.1000000000000000E-11
!LOCFIT_SCF=  0.000000000000000    
!LOCFIT_MP2= -1.000000000000000    
_RIDOM=  0.000000000000000    
!CC2_METHOD=  0.000000000000000    
_BASIS2006=FALSE
_SVDDEL= -1.000000000000000    
_SVDDELA= -1.000000000000000    
_SVDDELP= -1.000000000000000    
_SVDDELF= -1.000000000000000    
_SVDDELS= -1.000000000000000    
_SVDDEL_ABS= -1.000000000000000    
_SVDDELA_ABS= -1.000000000000000    
_SVDDELP_ABS= -1.000000000000000    
_SVDDELF_ABS= -1.000000000000000    
_SVDDELS_ABS= -1.000000000000000    
_MAXBASIS=  0.000000000000000    
!OPT_CONICAL=  0.000000000000000    
!CLEARSP_JGRID=  0.000000000000000    
_4EXT_NDISKS=  1.000000000000000    
!ZMP=  0.000000000000000    
_MAXIT_ZMP=  500.0000000000000    
_MAXDIS_ZMP=  100.0000000000000    
_ACCU_ZMP=  14.00000000000000    
_SHIFTA_ZMP= -100.0000000000000    
!EMBEDFLAG=  1.000000000000000    
!EMBED=FALSE
!EMBED_F12=FALSE
!EMBEDNUC=  0.000000000000000    
_EMBEDENERGY=  0.000000000000000    
_KSPACETIME=  0.000000000000000    
_RSPACETIME=  0.000000000000000    
!EMBED_DFC=FALSE
!NUM_VOIDS=  0.000000000000000    
_IBODY=  0.000000000000000    
_EMBE_TOTAL=  0.000000000000000    
_EMBE_HF=  0.000000000000000    
_EMBE_CORR=  0.000000000000000    
!EDFT=  0.000000000000000    
_IFASTLATGRAD=  0.000000000000000    
_SINDEX=  0.000000000000000    
GX1=  2.645994329000000    
GY1=  0.000000000000000    
GZ1=  0.000000000000000    
GX2=  1.322997165000000    
GY2= -2.291481734000000    
GZ2=  0.000000000000000    
GX3=  4.700693397000000    
GY3=  0.000000000000000    
GZ3=  0.000000000000000    
GX4=  2.350252212000000    
GY4= -4.070847725000000    
GZ4=  0.000000000000000    
GX5= -1.322997165000000    
GY5= -2.291481734000000    
GZ5=  0.000000000000000    
GX6= -2.645994329000000    
GY6=  0.000000000000000    
GZ6=  0.000000000000000    
GX7= -2.350252212000000    
GY7= -4.070847725000000    
GZ7=  0.000000000000000    
GX8= -4.700693397000000    
GY8=  0.000000000000000    
GZ8=  0.000000000000000    
GX9= -1.322997165000000    
GY9=  2.291481734000000    
GZ9=  0.000000000000000    
GX10=  1.322997165000000    
GY10=  2.291481734000000    
GZ10=  0.000000000000000    
GX11= -2.350252212000000    
GY11=  4.070847725000000    
GZ11=  0.000000000000000    
GX12=  2.350252212000000    
GY12=  4.070847725000000    
GZ12=  0.000000000000000    
[Atoms] Angs
C     1    6         1.4001998941        0.0000000000        0.0000000000
C     2    6         0.7000999473       -1.2125999085        0.0000000000
H     3    1         2.4874998122        0.0000000000        0.0000000000
H     4    1         1.2436999060       -2.1541998374        0.0000000000
C     5    6        -0.7000999473       -1.2125999085        0.0000000000
C     6    6        -1.4001998941        0.0000000000        0.0000000000
H     7    1        -1.2436999060       -2.1541998374        0.0000000000
H     8    1        -2.4874998122        0.0000000000        0.0000000000
C     9    6        -0.7000999473        1.2125999085        0.0000000000
C    10    6         0.7000999473        1.2125999085        0.0000000000
H    11    1        -1.2436999060        2.1541998374        0.0000000000
H    12    1         1.2436999060        2.1541998374        0.0000000000
[GTO]
  1 0
 s    8  1.00
  0.6665000000D+04  0.6915839628D-03
  0.1000000000D+04  0.5325796153D-02
  0.2280000000D+03  0.2706072104D-01
  0.6471000000D+02  0.1016568461D+00
  0.2106000000D+02  0.2745748236D+00
  0.7495000000D+01  0.4482943189D+00
  0.2797000000D+01  0.2849026107D+00
  0.5215000000D+00  0.1519485921D-01
 s    8  1.00
  0.6665000000D+04 -0.2932696527D-03
  0.1000000000D+04 -0.2318035474D-02
  0.2280000000D+03 -0.1149978604D-01
  0.6471000000D+02 -0.4682672701D-01
  0.2106000000D+02 -0.1284661688D+00
  0.7495000000D+01 -0.3012662725D+00
  0.2797000000D+01 -0.2556307023D+00
  0.5215000000D+00  0.1093793361D+01
 s    1  1.00
  0.1596000000D+00  0.1000000000D+01
 p    3  1.00
  0.9439000000D+01  0.5697925159D-01
  0.2002000000D+01  0.3132072115D+00
  0.5456000000D+00  0.7603767417D+00
 p    1  1.00
  0.1517000000D+00  0.1000000000D+01
 d    1  1.00
  0.5500000000D+00  0.1000000000D+01
  
  6 0
 s    8  1.00
  0.6665000000D+04  0.6915839628D-03
  0.1000000000D+04  0.5325796153D-02
  0.2280000000D+03  0.2706072104D-01
  0.6471000000D+02  0.1016568461D+00
  0.2106000000D+02  0.2745748236D+00
  0.7495000000D+01  0.4482943189D+00
  0.2797000000D+01  0.2849026107D+00
  0.5215000000D+00  0.1519485921D-01
 s    8  1.00
  0.6665000000D+04 -0.2932696527D-03
  0.1000000000D+04 -0.2318035474D-02
  0.2280000000D+03 -0.1149978604D-01
  0.6471000000D+02 -0.4682672701D-01
  0.2106000000D+02 -0.1284661688D+00
  0.7495000000D+01 -0.3012662725D+00
  0.2797000000D+01 -0.2556307023D+00
  0.5215000000D+00  0.1093793361D+01
 s    1  1.00
  0.1596000000D+00  0.1000000000D+01
 p    3  1.00
  0.9439000000D+01  0.5697925159D-01
  0.2002000000D+01  0.3132072115D+00
  0.5456000000D+00  0.7603767417D+00
 p    1  1.00
  0.1517000000D+00  0.1000000000D+01
 d    1  1.00
  0.5500000000D+00  0.1000000000D+01
  
  2 0
 s    8  1.00
  0.6665000000D+04  0.6915839628D-03
  0.1000000000D+04  0.5325796153D-02
  0.2280000000D+03  0.2706072104D-01
  0.6471000000D+02  0.1016568461D+00
  0.2106000000D+02  0.2745748236D+00
  0.7495000000D+01  0.4482943189D+00
  0.2797000000D+01  0.2849026107D+00
  0.5215000000D+00  0.1519485921D-01
 s    8  1.00
  0.6665000000D+04 -0.2932696527D-03
  0.1000000000D+04 -0.2318035474D-02
  0.2280000000D+03 -0.1149978604D-01
  0.6471000000D+02 -0.4682672701D-01
  0.2106000000D+02 -0.1284661688D+00
  0.7495000000D+01 -0.3012662725D+00
  0.2797000000D+01 -0.2556307023D+00
  0.5215000000D+00  0.1093793361D+01
 s    1  1.00
  0.1596000000D+00  0.1000000000D+01
 p    3  1.00
  0.9439000000D+01  0.5697925159D-01
  0.2002000000D+01  0.3132072115D+00
  0.5456000000D+00  0.7603767417D+00
 p    1  1.00
  0.1517000000D+00  0.1000000000D+01
 d    1  1.00
  0.5500000000D+00  0.1000000000D+01
  
  5 0
 s    8  1.00
  0.6665000000D+04  0.6915839628D-03
  0.1000000000D+04  0.5325796153D-02
  0.2280000000D+03  0.2706072104D-01
  0.6471000000D+02  0.1016568461D+00
  0.2106000000D+02  0.2745748236D+00
  0.7495000000D+01  0.4482943189D+00
  0.2797000000D+01  0.2849026107D+00
  0.5215000000D+00  0.1519485921D-01
 s    8  1.00
  0.6665000000D+04 -0.2932696527D-03
  0.1000000000D+04 -0.2318035474D-02
  0.2280000000D+03 -0.1149978604D-01
  0.6471000000D+02 -0.4682672701D-01
  0.2106000000D+02 -0.1284661688D+00
  0.7495000000D+01 -0.3012662725D+00
  0.2797000000D+01 -0.2556307023D+00
  0.5215000000D+00  0.1093793361D+01
 s    1  1.00
  0.1596000000D+00  0.1000000000D+01
 p    3  1.00
  0.9439000000D+01  0.5697925159D-01
  0.2002000000D+01  0.3132072115D+00
  0.5456000000D+00  0.7603767417D+00
 p    1  1.00
  0.1517000000D+00  0.1000000000D+01
 d    1  1.00
  0.5500000000D+00  0.1000000000D+01
  
  9 0
 s    8  1.00
  0.6665000000D+04  0.6915839628D-03
  0.1000000000D+04  0.5325796153D-02
  0.2280000000D+03  0.2706072104D-01
  0.6471000000D+02  0.1016568461D+00
  0.2106000000D+02  0.2745748236D+00
  0.7495000000D+01  0.4482943189D+00
  0.2797000000D+01  0.2849026107D+00
  0.5215000000D+00  0.1519485921D-01
 s    8  1.00
  0.6665000000D+04 -0.2932696527D-03
  0.1000000000D+04 -0.2318035474D-02
  0.2280000000D+03 -0.1149978604D-01
  0.6471000000D+02 -0.4682672701D-01
  0.2106000000D+02 -0.1284661688D+00
  0.7495000000D+01 -0.3012662725D+00
  0.2797000000D+01 -0.2556307023D+00
  0.5215000000D+00  0.1093793361D+01
 s    1  1.00
  0.1596000000D+00  0.1000000000D+01
 p    3  1.00
  0.9439000000D+01  0.5697925159D-01
  0.2002000000D+01  0.3132072115D+00
  0.5456000000D+00  0.7603767417D+00
 p    1  1.00
  0.1517000000D+00  0.1000000000D+01
 d    1  1.00
  0.5500000000D+00  0.1000000000D+01
  
 10 0
 s    8  1.00
  0.6665000000D+04  0.6915839628D-03
  0.1000000000D+04  0.5325796153D-02
  0.2280000000D+03  0.2706072104D-01
  0.6471000000D+02  0.1016568461D+00
  0.2106000000D+02  0.2745748236D+00
  0.7495000000D+01  0.4482943189D+00
  0.2797000000D+01  0.2849026107D+00
  0.5215000000D+00  0.1519485921D-01
 s    8  1.00
  0.6665000000D+04 -0.2932696527D-03
  0.1000000000D+04 -0.2318035474D-02
  0.2280000000D+03 -0.1149978604D-01
  0.6471000000D+02 -0.4682672701D-01
  0.2106000000D+02 -0.1284661688D+00
  0.7495000000D+01 -0.3012662725D+00
  0.2797000000D+01 -0.2556307023D+00
  0.5215000000D+00  0.1093793361D+01
 s    1  1.00
  0.1596000000D+00  0.1000000000D+01
 p    3  1.00
  0.9439000000D+01  0.5697925159D-01
  0.2002000000D+01  0.3132072115D+00
  0.5456000000D+00  0.7603767417D+00
 p    1  1.00
  0.1517000000D+00  0.1000000000D+01
 d    1  1.00
  0.5500000000D+00  0.1000000000D+01
  
  3 0
 s    3  1.00
  0.1301000000D+02  0.3349872639D-01
  0.1962000000D+01  0.2348008012D+00
  0.4446000000D+00  0.8136829579D+00
 s    1  1.00
  0.1220000000D+00  0.1000000000D+01
 p    1  1.00
  0.7270000000D+00  0.1000000000D+01
  
  8 0
 s    3  1.00
  0.1301000000D+02  0.3349872639D-01
  0.1962000000D+01  0.2348008012D+00
  0.4446000000D+00  0.8136829579D+00
 s    1  1.00
  0.1220000000D+00  0.1000000000D+01
 p    1  1.00
  0.7270000000D+00  0.1000000000D+01
  
  4 0
 s    3  1.00
  0.1301000000D+02  0.3349872639D-01
  0.1962000000D+01  0.2348008012D+00
  0.4446000000D+00  0.8136829579D+00
 s    1  1.00
  0.1220000000D+00  0.1000000000D+01
 p    1  1.00
  0.7270000000D+00  0.1000000000D+01
  
  7 0
 s    3  1.00
  0.1301000000D+02  0.3349872639D-01
  0.1962000000D+01  0.2348008012D+00
  0.4446000000D+00  0.8136829579D+00
 s    1  1.00
  0.1220000000D+00  0.1000000000D+01
 p    1  1.00
  0.7270000000D+00  0.1000000000D+01
  
 11 0
 s    3  1.00
  0.1301000000D+02  0.3349872639D-01
  0.1962000000D+01  0.2348008012D+00
  0.4446000000D+00  0.8136829579D+00
 s    1  1.00
  0.1220000000D+00  0.1000000000D+01
 p    1  1.00
  0.7270000000D+00  0.1000000000D+01
  
 12 0
 s    3  1.00
  0.1301000000D+02  0.3349872639D-01
  0.1962000000D+01  0.2348008012D+00
  0.4446000000D+00  0.8136829579D+00
 s    1  1.00
  0.1220000000D+00  0.1000000000D+01
 p    1  1.00
  0.7270000000D+00  0.1000000000D+01
 
 
[MO]
 Sym=      1.1
 Ene=     -11.2412
 Spin= Alpha
 Occup=    2.000000
1 0.40962292418023
2 0.001423541324096
3 -0.001852641732825
4 0.000092429914958
5 0.0
6 0.0
7 -0.000230093988157
8 0.0
9 0.0
10 0.000110956900203
11 -0.000049164598749
12 -0.000061792301454
13 0.0
14 0.0
15 0.0
16 0.40962292418023
17 0.001423541324096
18 -0.001852641732825
19 -0.000092429914958
20 0.0
21 0.0
22 0.000230093988157
23 0.0
24 0.0
25 0.000110956900203
26 -0.000049164598749
27 -0.000061792301454
28 0.0
29 0.0
30 0.0
31 0.40839952129850
32 0.001417922277994
33 -0.001838624853816
34 0.000046117526202
35 -0.000080016617325
36 0.0
37 -0.000116016994890
38 0.000202764081495
39 0.0
40 -0.000009510673829
41 0.000070272955780
42 -0.000060762281951
43 -0.000080072864185
44 0.0
45 0.0
46 0.40839952129850
47 0.001417922277994
48 -0.001838624853816
49 -0.000046117526202
50 -0.000080016617325
51 0.0
52 0.000116016994890
53 0.000202764081495
54 0.0
55 -0.000009510673829
56 0.000070272955780
57 -0.000060762281951
58 0.000080072864185
59 0.0
60 0.0
61 0.40839952129850
62 0.001417922277994
63 -0.001838624853816
64 -0.000046117526202
65 0.000080016617325
66 0.0
67 0.000116016994890
68 -0.000202764081495
69 0.0
70 -0.000009510673829
71 0.000070272955780
72 -0.000060762281951
73 -0.000080072864185
74 0.0
75 0.0
76 0.40839952129850
77 0.001417922277994
78 -0.001838624853816
79 0.000046117526202
80 0.000080016617325
81 0.0
82 -0.000116016994890
83 -0.000202764081495
84 0.0
85 -0.000009510673829
86 0.000070272955780
87 -0.000060762281951
88 0.000080072864185
89 0.0
90 0.0
91 -0.000140523172930
92 0.000691476004762
93 0.000138178763021
94 0.0
95 0.0
96 -0.000140523172930
97 0.000691476004762
98 -0.000138178763021
99 0.0
100 0.0
101 -0.000139807567848
102 0.000691114756692
103 0.000068659445434
104 -0.000118953095316
105 0.0
106 -0.000139807567848
107 0.000691114756692
108 -0.000068659445434
109 -0.000118953095316
110 0.0
111 -0.000139807567848
112 0.000691114756692
113 -0.000068659445434
114 0.000118953095316
115 0.0
116 -0.000139807567848
117 0.000691114756692
118 0.000068659445434
119 0.000118953095316
120 0.0
 Sym=      1.2
 Ene=     -11.2407
 Spin= Alpha
 Occup=    2.000000
1 0.57902279764192
2 0.002447568830748
3 -0.004616710660005
4 0.000049176685167
5 0.0
6 0.0
7 0.000372340234182
8 0.0
9 0.0
10 0.000102523000171
11 -0.000031294288045
12 -0.000071228712127
13 0.0
14 0.0
15 0.0
16 -0.57902279764192
17 -0.002447568830748
18 0.004616710660005
19 0.000049176685167
20 0.0
21 0.0
22 0.000372340234182
23 0.0
24 0.0
25 -0.000102523000171
26 0.000031294288045
27 0.000071228712127
28 0.0
29 0.0
30 0.0
31 0.28866781210478
32 0.001219443140846
33 -0.002291662591624
34 -0.000021489670004
35 -0.000040796404885
36 0.0
37 0.001222654044338
38 0.000498025294959
39 0.0
40 0.000015162368785
41 0.000019357011648
42 -0.000034519380433
43 -0.000043007112337
44 0.0
45 0.0
46 -0.28866781210478
47 -0.001219443140846
48 0.002291662591624
49 -0.000021489670004
50 0.000040796404885
51 0.0
52 0.001222654044338
53 -0.000498025294959
54 0.0
55 -0.000015162368785
56 -0.000019357011648
57 0.000034519380433
58 -0.000043007112337
59 0.0
60 0.0
61 -0.28866781210478
62 -0.001219443140846
63 0.002291662591624
64 -0.000021489670004
65 -0.000040796404885
66 0.0
67 0.001222654044338
68 0.000498025294959
69 0.0
70 -0.000015162368785
71 -0.000019357011648
72 0.000034519380433
73 0.000043007112337
74 0.0
75 0.0
76 0.28866781210478
77 0.001219443140846
78 -0.002291662591624
79 -0.000021489670004
80 0.000040796404885
81 0.0
82 0.001222654044338
83 -0.000498025294959
84 0.0
85 0.000015162368785
86 0.000019357011648
87 -0.000034519380433
88 0.000043007112337
89 0.0
90 0.0
91 -0.000166286934920
92 0.000612717671595
93 0.000242026219327
94 0.0
95 0.0
96 0.000166286934920
97 -0.000612717671595
98 0.000242026219327
99 0.0
100 0.0
101 -0.000082394258982
102 0.000306939456355
103 0.000051799470883
104 -0.000109057355016
105 0.0
106 0.000082394258982
107 -0.000306939456355
108 0.000051799470883
109 0.000109057355016
110 0.0
111 0.000082394258982
112 -0.000306939456355
113 0.000051799470883
114 -0.000109057355016
115 0.0
116 -0.000082394258982
117 0.000306939456355
118 0.000051799470883
119 0.000109057355016
120 0.0
 Sym=      1.3
 Ene=     -11.2407
 Spin= Alpha
 Occup=    2.000000
1 0.0
2 0.0
3 0.0
4 0.0
5 0.000045062984287
6 0.0
7 0.0
8 -0.001510178584202
9 0.0
10 0.0
11 0.0
12 0.0
13 -0.000022464170139
14 0.0
15 0.0
16 0.0
17 0.0
18 0.0
19 0.0
20 0.000045062984287
21 0.0
22 0.0
23 -0.001510178584202
24 0.0
25 0.0
26 0.0
27 0.0
28 0.000022464170139
29 0.0
30 0.0
31 0.50096191961101
32 0.002117235406816
33 -0.003988619088747
34 0.000040806573732
35 -0.000025626654974
36 0.0
37 -0.000494486330965
38 -0.000653690091489
39 0.0
40 -0.000006843491745
41 0.000067905198034
42 -0.000061061706289
43 -0.000052253153984
44 0.0
45 0.0
46 0.50096191961101
47 0.002117235406816
48 -0.003988619088747
49 -0.000040806573732
50 -0.000025626654974
51 0.0
52 0.000494486330965
53 -0.000653690091489
54 0.0
55 -0.000006843491745
56 0.000067905198034
57 -0.000061061706289
58 0.000052253153984
59 0.0
60 0.0
61 -0.50096191961101
62 -0.002117235406816
63 0.003988619088747
64 0.000040806573732
65 -0.000025626654974
66 0.0
67 -0.000494486330965
68 -0.000653690091489
69 0.0
70 0.000006843491745
71 -0.000067905198034
72 0.000061061706289
73 0.000052253153984
74 0.0
75 0.0
76 -0.50096191961101
77 -0.002117235406816
78 0.003988619088747
79 -0.000040806573732
80 -0.000025626654974
81 0.0
82 0.000494486330965
83 -0.000653690091489
84 0.0
85 0.000006843491745
86 -0.000067905198034
87 0.000061061706289
88 -0.000052253153984
89 0.0
90 0.0
91 0.0
92 0.0
93 0.0
94 0.000011182918632
95 0.0
96 0.0
97 0.0
98 0.0
99 0.000011182918632
100 0.0
101 -0.000143597566251
102 0.000531019470130
103 0.000109444436777
104 -0.000178382347173
105 0.0
106 -0.000143597566251
107 0.000531019470130
108 -0.000109444436777
109 -0.000178382347173
110 0.0
111 0.000143597566251
112 -0.000531019470130
113 0.000109444436777
114 -0.000178382347173
115 0.0
116 0.000143597566251
117 -0.000531019470130
118 -0.000109444436777
119 -0.000178382347173
120 0.0
 Sym=      2.1
 Ene=     -11.2395
 Spin= Alpha
 Occup=    2.000000
1 0.57816696079395
2 0.002683760430037
3 -0.006519594198912
4 0.000043990349472
5 0.0
6 0.0
7 0.001519832261922
8 0.0
9 0.0
10 0.000297421931284
11 0.000203437022188
12 -0.000500858953472
13 0.0
14 0.0
15 0.0
16 0.57816696079395
17 0.002683760430037
18 -0.006519594198912
19 -0.000043990349472
20 0.0
21 0.0
22 -0.001519832261922
23 0.0
24 0.0
25 0.000297421931284
26 0.000203437022188
27 -0.000500858953472
28 0.0
29 0.0
30 0.0
31 -0.28994769641390
32 -0.001344940102284
33 0.003263721564700
34 -0.000055225721635
35 -0.000006226323812
36 0.0
37 0.000151781160716
38 0.000964526577693
39 0.0
40 -0.000021384797309
41 -0.000229180054545
42 0.000250564851854
43 -0.000037689197685
44 0.0
45 0.0
46 -0.28994769641390
47 -0.001344940102284
48 0.003263721564700
49 0.000055225721635
50 -0.000006226323812
51 0.0
52 -0.000151781160716
53 0.000964526577693
54 0.0
55 -0.000021384797309
56 -0.000229180054545
57 0.000250564851854
58 0.000037689197685
59 0.0
60 0.0
61 -0.28994769641390
62 -0.001344940102284
63 0.003263721564700
64 0.000055225721635
65 0.000006226323812
66 0.0
67 -0.000151781160716
68 -0.000964526577693
69 0.0
70 -0.000021384797309
71 -0.000229180054545
72 0.000250564851854
73 -0.000037689197685
74 0.0
75 0.0
76 -0.28994769641390
77 -0.001344940102284
78 0.003263721564700
79 -0.000055225721635
80 0.000006226323812
81 0.0
82 0.000151781160716
83 -0.000964526577693
84 0.0
85 -0.000021384797309
86 -0.000229180054545
87 0.000250564851854
88 0.000037689197685
89 0.0
90 0.0
91 -0.000347450530528
92 0.000256787836032
93 0.000391091333422
94 0.0
95 0.0
96 -0.000347450530528
97 0.000256787836032
98 -0.000391091333422
99 0.0
100 0.0
101 0.000174058304701
102 -0.000129876877371
103 -0.000107463250785
104 0.000164085820515
105 0.0
106 0.000174058304701
107 -0.000129876877371
108 0.000107463250785
109 0.000164085820515
110 0.0
111 0.000174058304701
112 -0.000129876877371
113 0.000107463250785
114 -0.000164085820515
115 0.0
116 0.000174058304701
117 -0.000129876877371
118 -0.000107463250785
119 -0.000164085820515
120 0.0
 Sym=      1.4
 Ene=     -11.2395
 Spin= Alpha
 Occup=    2.000000
1 0.0
2 0.0
3 0.0
4 0.0
5 0.000058841908204
6 0.0
7 0.0
8 -0.000708696468349
9 0.0
10 0.0
11 0.0
12 0.0
13 -0.000141739484504
14 0.0
15 0.0
16 0.0
17 0.0
18 0.0
19 0.0
20 -0.000058841908204
21 0.0
22 0.0
23 0.000708696468349
24 0.0
25 0.0
26 0.0
27 0.0
28 -0.000141739484504
29 0.0
30 0.0
31 0.50120673968696
32 0.002326020101903
33 -0.005648366193565
34 -0.000006323035363
35 -0.000047844966597
36 0.0
37 0.000964711962235
38 -0.000962454303617
39 0.0
40 0.000249634025000
41 0.000184214044438
42 -0.000433848069438
43 -0.000076217501800
44 0.0
45 0.0
46 -0.50120673968696
47 -0.002326020101903
48 0.005648366193565
49 -0.000006323035363
50 0.000047844966597
51 0.0
52 0.000964711962235
53 0.000962454303617
54 0.0
55 -0.000249634025000
56 -0.000184214044438
57 0.000433848069438
58 -0.000076217501800
59 0.0
60 0.0
61 0.50120673968696
62 0.002326020101903
63 -0.005648366193565
64 0.000006323035363
65 0.000047844966597
66 0.0
67 -0.000964711962235
68 0.000962454303617
69 0.0
70 0.000249634025000
71 0.000184214044438
72 -0.000433848069438
73 -0.000076217501800
74 0.0
75 0.0
76 -0.50120673968696
77 -0.002326020101903
78 0.005648366193565
79 0.000006323035363
80 -0.000047844966597
81 0.0
82 -0.000964711962235
83 -0.000962454303617
84 0.0
85 -0.000249634025000
86 -0.000184214044438
87 0.000433848069438
88 -0.000076217501800
89 0.0
90 0.0
91 0.0
92 0.0
93 0.0
94 0.000012736343882
95 0.0
96 0.0
97 0.0
98 0.0
99 -0.000012736343882
100 0.0
101 -0.000301123482366
102 0.000223299268604
103 0.000163922818126
104 -0.000296633342986
105 0.0
106 0.000301123482366
107 -0.000223299268604
108 0.000163922818126
109 0.000296633342986
110 0.0
111 -0.000301123482366
112 0.000223299268604
113 -0.000163922818126
114 0.000296633342986
115 0.0
116 0.000301123482366
117 -0.000223299268604
118 -0.000163922818126
119 -0.000296633342986
120 0.0
 Sym=      2.2
 Ene=     -11.2390
 Spin= Alpha
 Occup=    2.000000
1 -0.40860268689573
2 -0.002107383675458
3 0.007742514104874
4 -0.000011800258267
5 0.0
6 0.0
7 -0.002736984512888
8 0.0
9 0.0
10 -0.000356244507342
11 -0.000191419697757
12 0.000547664205099
13 0.0
14 0.0
15 0.0
16 0.40860268689573
17 0.002107383675458
18 -0.007742514104874
19 -0.000011800258267
20 0.0
21 0.0
22 -0.002736984512888
23 0.0
24 0.0
25 0.000356244507342
26 0.000191419697757
27 -0.000547664205099
28 0.0
29 0.0
30 0.0
31 0.40979464165670
32 0.002112479435677
33 -0.007751889041880
34 0.000005941801424
35 -0.000010383878127
36 0.0
37 0.001370364439993
38 -0.002370085379707
39 0.0
40 0.000232624686274
41 0.000315190619993
42 -0.000547815306267
43 -0.000082561155922
44 0.0
45 0.0
46 -0.40979464165670
47 -0.002112479435677
48 0.007751889041880
49 0.000005941801424
50 0.000010383878127
51 0.0
52 0.001370364439993
53 0.002370085379707
54 0.0
55 -0.000232624686274
56 -0.000315190619993
57 0.000547815306267
58 -0.000082561155922
59 0.0
60 0.0
61 -0.40979464165670
62 -0.002112479435677
63 0.007751889041880
64 0.000005941801424
65 -0.000010383878127
66 0.0
67 0.001370364439993
68 -0.002370085379707
69 0.0
70 -0.000232624686274
71 -0.000315190619993
72 0.000547815306267
73 0.000082561155922
74 0.0
75 0.0
76 0.40979464165670
77 0.002112479435677
78 -0.007751889041880
79 0.000005941801424
80 0.000010383878127
81 0.0
82 0.001370364439993
83 0.002370085379707
84 0.0
85 0.000232624686274
86 0.000315190619993
87 -0.000547815306267
88 0.000082561155922
89 0.0
90 0.0
91 0.000368668381146
92 0.000191269586143
93 -0.000327265906859
94 0.0
95 0.0
96 -0.000368668381146
97 -0.000191269586143
98 -0.000327265906859
99 0.0
100 0.0
101 -0.000369068769116
102 -0.000190001312590
103 0.000163866962506
104 -0.000283849687936
105 0.0
106 0.000369068769116
107 0.000190001312590
108 0.000163866962506
109 0.000283849687936
110 0.0
111 0.000369068769116
112 0.000190001312590
113 0.000163866962506
114 -0.000283849687936
115 0.0
116 -0.000369068769116
117 -0.000190001312590
118 0.000163866962506
119 0.000283849687936
120 0.0
 Sym=      3.1
 Ene=      -1.1448
 Spin= Alpha
 Occup=    2.000000
1 -0.011568395660283
2 0.17995474891393
3 0.10053657603912
4 -0.064224429299188
5 0.0
6 0.0
7 -0.012011540263902
8 0.0
9 0.0
10 -0.000431154989599
11 0.009454696922800
12 -0.009023541933202
13 0.0
14 0.0
15 0.0
16 -0.011568395660283
17 0.17995474891393
18 0.10053657603912