[Molden Format]
[Molpro variables]
_NUMVAR=  784.0000000000000    
_AVOGAD= 0.6022136736000000E+24
_BOLTZ= 0.1380658000000000E-22
_CLIGHT=  29979245800.00000    
_EV2006= 0.3674930886769165E-01
_EV= 0.3674932534394180E-01
_ENULL= 0.8854187817000000E-11
_KJOULE= 0.3808798324128737E-03
_KJOULE/MOL= 0.3808798324128737E-03
_CM= 0.4556335267302901E-05
_CM-1= 0.4556335267302901E-05
_DEB2SI= 0.3335641000000000E-29
_AMU2AU=  1822.888390000000    
_KCAL= 0.1593601117815568E-02
_KCAL/MOL= 0.1593601117815568E-02
_KELVIN2006= 0.3166828861084835E-05
_KELVIN= 0.3166814820820034E-05
_JOULE= 0.4359748200000000E-17
_HERTZ2006= 0.1519829850815779E-15
_HERTZ= 0.1519829846011223E-15
_HZ2006= 0.1519829850815779E-15
_HZ= 0.1519829846011223E-15
_JPCAL=  4.184000000000000    
_PLANCK= 0.6626075540000000E-33
_TOA2006= 0.5291772490000000    
_TOA= 0.5291772090000000    
_TOANG2006= 0.5291772490000000    
_TOANG= 0.5291772090000000    
_TORAD= 0.1745329251994330E-01
_TOCM=  219474.6306700000    
_TODEBYE=  2.541580000000000    
_TOEV2006=  27.21139610000000    
_TOE= 0.4803242000000000E-09
_TOEV=  27.21138390000000    
_TOHERTZ2006=  6579683899900000.    
_TOHERTZ=  6579683920700000.    
_TOHZ2006=  6579683899900000.    
_TOHZ=  6579683920700000.    
_TOK2006=  315773.3000000000    
_TOK=  315774.7000000000    
_TOKCAL=  627.5096000000000    
_TOKELVIN2006=  315773.3000000000    
_TOKELVIN=  315774.7000000000    
_TOKJ=  2625.500000000000    
_TOKJOULE=  2625.500000000000    
_TOKG= 0.1660565586000000E-26
_ANG2006=  1.889725988578923    
_ANG=  1.889726131421507    
_ANGSTROM2006=  1.889725988578923    
_ANGSTROM=  1.889726131421507    
_RPAREF=  0.000000000000000    
_RPADISS=  0.000000000000000    
_IGNORE_UNDEF=  2.000000000000000    
_STRICTCHECK=  0.000000000000000    
_SEW_ONEEL=  0.000000000000000    
_CPPDONE=FALSE
_DKROLL_DONE=  0.000000000000000    
_FOCKDONE=TRUE
_GRADONE=FALSE
_HESSDONE=FALSE
_INTDONE=TRUE
_SCFDONE=TRUE
_MODUL_BLOCK=FALSE
_MODUL_CUDA=FALSE
_MODUL_SLATER=FALSE
_MODUL_MRCC=FALSE
_MODUL_NBO6=FALSE
_MODUL_NECI=TRUE
_MODUL_AIMS=TRUE
_MRCC_EXEC=
_FITC_AO_SAVED=FALSE
_FITC_MO_SAVED=FALSE
_SHARED_FS=TRUE
_LSTYP=SEWARD
_INTYP=INTS
_GEOMTYP=ZMAT
_GRADTYP=ALASKA
_DIRECT=FALSE
_DKHO= -1.000000000000000    
_SYNCM=  0.000000000000000    
_BASIS=USERDEF
_ZORIENT=  1.000000000000000    
_NELEC=  16.00000000000000    
!SPIN=  0.000000000000000    
_QSDSTEP=  0.000000000000000    
_QSDIRC=  0.000000000000000    
_PROGRAM=HF-SCF
_CPUSTEP= 0.3999999999999998E-01
_SYSSTEP= 0.1999999999999999E-01
_WALLSTEP= 0.3900000000000000    
!DFSCF=  0.000000000000000    
!SCSGRD=  0.000000000000000    
_BASINP=  610.0000000000000    
_CPUTOT= 0.3200000000000000    
_CPUSORT= 0.3999999999999998E-01
_SYSSORT= 0.5000000000000002E-01
_WALLSORT= 0.1400000005960464    
_DFTEXFAC=  1.000000000000000    
_DMX=  0.000000000000000    
_DMY=  0.000000000000000    
_DMZ=  0.000000000000000    
_DMX_SCF=  0.000000000000000    
_DMY_SCF=  0.000000000000000    
_DMZ_SCF=  0.000000000000000    
_EHOMO=-0.3931176384653584    
_ELUMO= 0.1507684619222702    
_ENERGY= -110.0085066036432    
_ENUC=  32.90960542492468    
_EPS1= -15.62284562330312    
_EPS2=-0.5199415207199426    
_EPS3= -15.62132769571639    
_EPS4= 0.1507684619222702    
_GRADEXFAC=  9999.000000000000    
_GRADMETHOD=  1.000000000000000    
_NMRMETHOD=  0.000000000000000    
!GRID_FREEZE= -1.000000000000000    
_ITERATIONS=  9.000000000000000    
_LASTNELEC=  16.00000000000000    
_LASTSPIN=  0.000000000000000    
_LASTSYM=  1.000000000000000    
_MPP_PROG=  0.000000000000000    
_NPROC_MPP=  1.000000000000000    
_NPROC_MPPX=  1.000000000000000    
_NPROC_SMP=  16.00000000000000    
_NUMSTEP=  0.000000000000000    
_ORBITAL=  2100.200000000000    
_PI=  3.141592653589793    
_SEIG_MIN= 0.7442282617842138E-02
_SEWPROP=TRUE
_STATUS=  1.000000000000000    
_SYSTOT= 0.1200000000000000    
_VERSION=  2012001.000000000    
_WALLTOT=  2.190000000000000    
_DATE=24-Jan-19
_LASTORB=RHF
_MACHINE=Linux-4.9.0-8-amd64/nympha18.meta.zcu.cz(x86_64) (16 PROC) 64 bit serial version
_OUTPUT=/auto/brno2/home/masiz4am/git/UKRmol-in/tests/suite/C2h_target_HF2/molpro.xml
_PGROUP=C2h
_TIME=16:17:42
_LIBMOL=/afs/ics.muni.cz/software/molpro-2012.1/molprop_2012_1_Linux_x86_64_i8/lib/
!VIBCNT=  0.000000000000000    
!RGHFCNT=  0.000000000000000    
!SURFREC=  0.000000000000000    
!POLYREC=  0.000000000000000    
!DIPREC=  0.000000000000000    
!VSCFREC=  0.000000000000000    
!VCIREC=  0.000000000000000    
!PVCIREC=  0.000000000000000    
!VMP2REC=  0.000000000000000    
!VMCSCFREC=  0.000000000000000    
!VMRCIREC=  0.000000000000000    
!VIBINFO=  0.000000000000000    
!GAREC=  0.000000000000000    
!SCFORB=  21002.00000000000    
!NEWMOL= -1.000000000000000    
!NEWSYM= -1.000000000000000    
_SLFILES=slscratch
_NGSSTO=  9.000000000000000    
_SIN=SIN
_COS=COS
_TAN=TAN
_ACOS=ACOS
_ASIN=ASIN
_ATAN=ATAN
_COSH=COSH
_SINH=SINH
_TANH=TANH
_ABS=ABS
_MOD=MOD
_ERF=ERF
_REFC=REFC
_ERFC=ERFC
_HYPOT=HYPOT
_J0=J0
_J1=J1
_JN=JN
_GAMMA=GAMMA
_LGAMMA=LGAMMA
_Y0=Y0
_Y1=Y1
_YN=YN
_EXP=EXP
_LOG=LOG
_LOG10=LOG10
_SQRT=SQRT
_INT=INT
_NINT=NINT
_MAX=MAX
_MIN=MIN
_COSMO=  0.000000000000000    
_COSMOIT=  0.000000000000000    
_COSMOES=  0.000000000000000    
_COSMOEDS=  0.000000000000000    
_COSMOEC=  0.000000000000000    
_COSMOEDCORR=  0.000000000000000    
_FEPSI=  1.000000000000000    
_SL_IsMM=  0.000000000000000    
_SL_NSYM=  4.000000000000000    
_SL_System_BitSw=  0.000000000000000    
_SL_Unique_atoms=  0.000000000000000    
_SL_GRAD=  0.000000000000000    
_SL_MAXUPD_Hess=  5.000000000000000    
_SL_N_PRINT_COD=  5.000000000000000    
_SL_PRINT_CODES=  0.000000000000000    
_SL_BasType=  0.000000000000000    
_SL_Energy_Pred=  0.000000000000000    
_SL_New_Coords=  0.000000000000000    
_SL_Total_Nuclea=  0.000000000000000    
_SL_Highest_Mltp=  0.000000000000000    
_SL_Ref_Geom=  0.000000000000000    
_SL_Symmetry_ope=  1.000000000000000    
_SL_agrad=  0.000000000000000    
_SL_GrdMax=  0.000000000000000    
_SL_GrdNorm=  0.000000000000000    
_SL_GrdRMS=  0.000000000000000    
!LATTICE= -1.000000000000000    
!NEWLATTICE=  0.000000000000000    
!LATGRAD_VAR=FALSE
!SEW_LATTICE=  1.000000000000000    
!LOCAL=  0.000000000000000    
!SAVEDOM= -1.000000000000000    
!RESTDOM= -1.000000000000000    
!SAVEDOM_HF= -1.000000000000000    
!RESTDOM_HF= -1.000000000000000    
!HESSREC=  0.000000000000000    
!FREQREC=  0.000000000000000    
!NMODREC=  0.000000000000000    
!GTASKS=  0.000000000000000    
!HTASKS=  0.000000000000000    
!THRCHG= 0.1000000000000000    
!DEBUG= -1.000000000000000    
!CFIT_CPHF=  0.000000000000000    
!RDOMAUX_CPHF=  3.000000000000000    
!THRAO_CPHF= 0.1000000000000000E-09
!THRMO_CPHF= 0.1000000000000000E-08
!THROV_CPHF= 0.1000000000000000E-11
!THRSW_CPHF= 0.1000000000000000E-09
!THRPROD_CPHF= 0.1000000000000000E-08
!THRAOPR_CPHF= 0.1000000000000000E-11
!CFIT_SCFGRD=  0.000000000000000    
!RDOMAUX_SCFGRD=  5.000000000000000    
!THRAO_SCFGRD= 0.1000000000000000E-09
!THRMO_SCFGRD= 0.1000000000000000E-08
!THROV_SCFGRD= 0.1000000000000000E-11
!THRSW_SCFGRD= 0.1000000000000000E-09
!THRPROD_SCFGRD= 0.1000000000000000E-08
!THRAOPR_SCFGRD= 0.1000000000000000E-11
!LOCFIT_SCF=  0.000000000000000    
!LOCFIT_MP2= -1.000000000000000    
_RIDOM=  0.000000000000000    
!CC2_METHOD=  0.000000000000000    
_BASIS2006=FALSE
_SVDDEL= -1.000000000000000    
_SVDDELA= -1.000000000000000    
_SVDDELP= -1.000000000000000    
_SVDDELF= -1.000000000000000    
_SVDDELS= -1.000000000000000    
_SVDDEL_ABS= -1.000000000000000    
_SVDDELA_ABS= -1.000000000000000    
_SVDDELP_ABS= -1.000000000000000    
_SVDDELF_ABS= -1.000000000000000    
_SVDDELS_ABS= -1.000000000000000    
_MAXBASIS=  0.000000000000000    
!OPT_CONICAL=  0.000000000000000    
!CLEARSP_JGRID=  0.000000000000000    
_4EXT_NDISKS=  1.000000000000000    
!ZMP=  0.000000000000000    
_MAXIT_ZMP=  500.0000000000000    
_MAXDIS_ZMP=  100.0000000000000    
_ACCU_ZMP=  14.00000000000000    
_SHIFTA_ZMP= -100.0000000000000    
!EMBEDFLAG=  1.000000000000000    
!EMBED=FALSE
!EMBED_F12=FALSE
!EMBEDNUC=  0.000000000000000    
_EMBEDENERGY=  0.000000000000000    
_KSPACETIME=  0.000000000000000    
_RSPACETIME=  0.000000000000000    
!EMBED_DFC=FALSE
!NUM_VOIDS=  0.000000000000000    
_IBODY=  0.000000000000000    
_EMBE_TOTAL=  0.000000000000000    
_EMBE_HF=  0.000000000000000    
_EMBE_CORR=  0.000000000000000    
!EDFT=  0.000000000000000    
_IFASTLATGRAD=  0.000000000000000    
_SINDEX=  0.000000000000000    
GX1=  1.147819566000000    
GY1=  0.000000000000000    
GZ1=  0.000000000000000    
GX2=  1.722863184000000    
GY2=  0.000000000000000    
GZ2=  1.840404140000000    
GX3= -1.147819566000000    
GY3=  0.000000000000000    
GZ3=  0.000000000000000    
GX4= -1.722863184000000    
GY4=  0.000000000000000    
GZ4= -1.840404140000000    
[Atoms] Angs
N     1    7         0.6073999544        0.0000000000        0.0000000000
H     2    1         0.9116999312        0.0000000000        0.9738999262
N     3    7        -0.6073999544        0.0000000000        0.0000000000
H     4    1        -0.9116999312        0.0000000000       -0.9738999262
[GTO]
  1 0
 s    8  1.00
  0.9046000000D+04  0.6996174134D-03
  0.1357000000D+04  0.5386054630D-02
  0.3093000000D+03  0.2739102119D-01
  0.8773000000D+02  0.1031505920D+00
  0.2856000000D+02  0.2785706633D+00
  0.1021000000D+02  0.4482948495D+00
  0.3838000000D+01  0.2780859284D+00
  0.7466000000D+00  0.1543156123D-01
 s    8  1.00
  0.9046000000D+04 -0.3049900960D-03
  0.1357000000D+04 -0.2408026379D-02
  0.3093000000D+03 -0.1194444873D-01
  0.8773000000D+02 -0.4892599291D-01
  0.2856000000D+02 -0.1344727247D+00
  0.1021000000D+02 -0.3151125777D+00
  0.3838000000D+01 -0.2428578325D+00
  0.7466000000D+00  0.1094382207D+01
 s    1  1.00
  0.2248000000D+00  0.1000000000D+01
 p    3  1.00
  0.1355000000D+02  0.5890567677D-01
  0.2917000000D+01  0.3204611067D+00
  0.7973000000D+00  0.7530420618D+00
 p    1  1.00
  0.2185000000D+00  0.1000000000D+01
 d    1  1.00
  0.8170000000D+00  0.1000000000D+01
  
  3 0
 s    8  1.00
  0.9046000000D+04  0.6996174134D-03
  0.1357000000D+04  0.5386054630D-02
  0.3093000000D+03  0.2739102119D-01
  0.8773000000D+02  0.1031505920D+00
  0.2856000000D+02  0.2785706633D+00
  0.1021000000D+02  0.4482948495D+00
  0.3838000000D+01  0.2780859284D+00
  0.7466000000D+00  0.1543156123D-01
 s    8  1.00
  0.9046000000D+04 -0.3049900960D-03
  0.1357000000D+04 -0.2408026379D-02
  0.3093000000D+03 -0.1194444873D-01
  0.8773000000D+02 -0.4892599291D-01
  0.2856000000D+02 -0.1344727247D+00
  0.1021000000D+02 -0.3151125777D+00
  0.3838000000D+01 -0.2428578325D+00
  0.7466000000D+00  0.1094382207D+01
 s    1  1.00
  0.2248000000D+00  0.1000000000D+01
 p    3  1.00
  0.1355000000D+02  0.5890567677D-01
  0.2917000000D+01  0.3204611067D+00
  0.7973000000D+00  0.7530420618D+00
 p    1  1.00
  0.2185000000D+00  0.1000000000D+01
 d    1  1.00
  0.8170000000D+00  0.1000000000D+01
  
  2 0
 s    3  1.00
  0.1301000000D+02  0.3349872639D-01
  0.1962000000D+01  0.2348008012D+00
  0.4446000000D+00  0.8136829579D+00
 s    1  1.00
  0.1220000000D+00  0.1000000000D+01
 p    1  1.00
  0.7270000000D+00  0.1000000000D+01
  
  4 0
 s    3  1.00
  0.1301000000D+02  0.3349872639D-01
  0.1962000000D+01  0.2348008012D+00
  0.4446000000D+00  0.8136829579D+00
 s    1  1.00
  0.1220000000D+00  0.1000000000D+01
 p    1  1.00
  0.7270000000D+00  0.1000000000D+01
 
 
[MO]
 Sym=      1.1
 Ene=     -15.6228
 Spin= Alpha
 Occup=    2.000000
1 0.70788102110746
2 0.001289612465550
3 -0.002482851555651
4 -0.000967051181420
5 0.0
6 0.001282678058940
7 0.000502837267372
8 0.0
9 -0.000790048974984
10 -0.000129620101717
11 -0.000171975932407
12 0.000301596034124
13 0.0
14 0.000070161823630
15 0.0
16 0.70788102110746
17 0.001289612465550
18 -0.002482851555651
19 0.000967051181420
20 0.0
21 -0.001282678058940
22 -0.000502837267372
23 0.0
24 0.000790048974984
25 -0.000129620101717
26 -0.000171975932407
27 0.000301596034124
28 0.0
29 0.000070161823630
30 0.0
31 -0.000189522852089
32 0.000791960213322
33 0.000101996534171
34 0.0
35 0.000562245403849
36 -0.000189522852089
37 0.000791960213322
38 -0.000101996534171
39 0.0
40 -0.000562245403849
 Sym=      1.3
 Ene=     -15.6213
 Spin= Alpha
 Occup=    2.000000
1 0.70814011970571
2 0.001560005406086
3 -0.003957350351153
4 -0.001415087912347
5 0.0
6 0.001254622049696
7 0.001178486997300
8 0.0
9 -0.000320841588183
10 0.000673303318005
11 -0.000739678001697
12 0.000066374683692
13 0.0
14 0.000114460799077
15 0.0
16 -0.70814011970571
17 -0.001560005406086
18 0.003957350351153
19 -0.001415087912347
20 0.0
21 0.001254622049696
22 0.001178486997300
23 0.0
24 -0.000320841588183
25 -0.000673303318005
26 0.000739678001697
27 -0.000066374683692
28 0.0
29 -0.000114460799077
30 0.0
31 -0.000263697584305
32 0.000292293576984
33 0.000174985048577
34 0.0
35 0.000679196185716
36 0.000263697584305
37 -0.000292293576984
38 0.000174985048577
39 0.0
40 0.000679196185716
 Sym=      2.1
 Ene=      -1.3706
 Spin= Alpha
 Occup=    2.000000
1 -0.007602026190794
2 0.32023289079751
3 0.21186737150258
4 -0.16692153017477
5 0.0
6 0.023868960897067
7 -0.038080107934445
8 0.0
9 -0.008070565203101
10 0.023807501584658
11 -0.011180031299507
12 -0.012627470285150
13 0.0
14 -0.002314556943659
15 0.0
16 -0.007602026190794
17 0.32023289079751
18 0.21186737150258
19 0.16692153017477
20 0.0
21 -0.023868960897067
22 0.038080107934445
23 0.0
24 0.008070565203101
25 0.023807501584658
26 -0.011180031299507
27 -0.012627470285150
28 0.0
29 -0.002314556943659
30 0.0
31 0.099416049609596
32 -0.005727197204725
33 -0.007603863937827
34 0.0
35 -0.019512100230633
36 0.099416049609596
37 -0.005727197204725
38 0.007603863937827
39 0.0
40 0.019512100230633
 Sym=      2.3
 Ene=      -0.9333
 Spin= Alpha
 Occup=    2.000000
1 -0.001354566091673
2 0.25873600444868
3 0.23735799963366
4 0.12996095813725
5 0.0
6 0.15601304924171
7 0.060696495633494
8 0.0
9 0.039983860088417
10 -0.016658794128377
11 0.000202586591964
12 0.016456207536413
13 0.0
14 -0.004016287732583
15 0.0
16 0.001354566091673
17 -0.25873600444868
18 -0.23735799963366
19 0.12996095813725
20 0.0
21 0.15601304924171
22 0.060696495633494
23 0.0
24 0.039983860088417
25 0.016658794128377
26 -0.000202586591964
27 -0.016456207536413
28 0.0
29 0.004016287732583
30 0.0
31 0.24966218214996
32 0.029542135162842
33 -0.009953922151809
34 0.0
35 -0.032794196896570
36 -0.24966218214996
37 -0.029542135162842
38 -0.009953922151809
39 0.0
40 -0.032794196896570
 Sym=      3.1
 Ene=      -0.6694
 Spin= Alpha
 Occup=    2.000000
1 -0.004919772321706
2 0.028381412605931
3 0.084569980892410
4 0.38631978513689
5 0.0
6 0.13000171489261
7 0.16922620129558
8 0.0
9 0.042435539801118
10 -0.030378639958160
11 0.005430176152711
12 0.024948463805449
13 0.0
14 0.016569905544034
15 0.0
16 -0.004919772321706
17 0.028381412605931
18 0.084569980892410
19 -0.38631978513689
20 0.0
21 -0.13000171489261
22 -0.16922620129558
23 0.0
24 -0.042435539801118
25 -0.030378639958160
26 0.005430176152711
27 0.024948463805449
28 0.0
29 0.016569905544034
30 0.0
31 0.24653567952768
32 0.081856892647093
33 0.001660198660523
34 0.0
35 -0.022642456266615
36 0.24653567952768
37 0.081856892647093
38 -0.001660198660523
39 0.0
40 0.022642456266615
 Sym=      3.3
 Ene=      -0.6451
 Spin= Alpha
 Occup=    2.000000
1 -0.003086170238435
2 -0.17916909215786
3 -0.25411118355443
4 -0.11296514486424
5 0.0
6 0.33639147673706
7 -0.091745863526129
8 0.0
9 0.18990373698000
10 0.000478979337370
11 -0.008413679122230
12 0.007934699784860
13 0.0
14 -0.024974062269035
15 0.0
16 0.003086170238435
17 0.17916909215786
18 0.25411118355443
19 -0.11296514486424
20 0.0
21 0.33639147673706
22 -0.091745863526129
23 0.0
24 0.18990373698000
25 -0.000478979337370
26 0.008413679122230
27 -0.007934699784860
28 0.0
29 0.024974062269035
30 0.0
31 0.11912213911824
32 0.027202658073900
33 -0.010514513231643
34 0.0
35 -0.007343939212585
36 -0.11912213911824
37 -0.027202658073900
38 -0.010514513231643
39 0.0
40 -0.007343939212585
 Sym=      1.2
 Ene=      -0.5199
 Spin= Alpha
 Occup=    2.000000
1 0.0
2 0.0
3 0.0
4 0.0
5 0.40077527835064
6 0.0
7 0.0
8 0.29309170005432
9 0.0
10 0.0
11 0.0
12 0.0
13 -0.042452238313869
14 0.0
15 0.010098360266637
16 0.0
17 0.0
18 0.0
19 0.0
20 0.40077527835064
21 0.0
22 0.0
23 0.29309170005432
24 0.0
25 0.0
26 0.0
27 0.0
28 0.042452238313869
29 0.0
30 -0.010098360266637
31 0.0
32 0.0
33 0.0
34 0.013264192480913
35 0.0
36 0.0
37 0.0
38 0.0
39 0.013264192480913
40 0.0
 Sym=      4.1
 Ene=      -0.3931
 Spin= Alpha
 Occup=    2.000000
1 0.008139966157037
2 -0.087364037725357
3 -0.29662375403473
4 -0.21576020428787
5 0.0
6 0.35109957431764
7 -0.15661078361927
8 0.0
9 0.28785995182691
10 0.000947622822903
11 -0.016838134014498
12 0.015890511191595
13 0.0
14 0.006941165229044
15 0.0
16 0.008139966157037
17 -0.087364037725357
18 -0.29662375403473
19 0.21576020428787
20 0.0
21 -0.35109957431764
22 0.15661078361927
23 0.0
24 -0.28785995182691
25 0.000947622822903
26 -0.016838134014498
27 0.015890511191595
28 0.0
29 0.006941165229044
30 0.0
31 0.23473893479046
32 0.063706295785899
33 -0.011000514756164
34 0.0
35 -0.007927513581429
36 0.23473893479046
37 0.063706295785899
38 0.011000514756164
39 0.0
40 0.007927513581429
 Sym=      1.4
 Ene=       0.1508
 Spin= Alpha
 Occup=    0.000000
1 0.0
2 0.0
3 0.0
4 0.0
5 0.41205024850394
6 0.0
7 0.0
8 0.61614521778709
9 0.0
10 0.0
11 0.0
12 0.0
13 0.012005591582146
14 0.0
15 0.013944856774207
16 0.0
17 0.0
18 0.0
19 0.0
20 -0.41205024850394
21 0.0
22 0.0
23 -0.61614521778709
24 0.0
25 0.0
26 0.0
27 0.0
28 0.012005591582146
29 0.0
30 0.013944856774207
31 0.0
32 0.0
33 0.0
34 0.024261819198161
35 0.0
36 0.0
37 0.0
38 0.0
39 -0.024261819198161
40 0.0
 Sym=      4.3
 Ene=       0.2091
 Spin= Alpha
 Occup=    0.000000
1 0.022638965773199
2 -0.057939696769488
3 -0.60456138700529
4 -0.026573103723699
5 0.0
6 -0.16300901320071
7 -0.19131409519051
8 0.0
9 -0.40939299310943
10 0.019145092638569
11 0.004636064410914
12 -0.023781157049483
13 0.0
14 0.006413932371131
15 0.0
16 -0.022638965773199
17 0.057939696769488
18 0.60456138700529
19 -0.026573103723699
20 0.0
21 -0.16300901320071
22 -0.19131409519051
23 0.0
24 -0.40939299310943
25 -0.019145092638569
26 -0.004636064410914
27 0.023781157049483
28 0.0
29 -0.006413932371131
30 0.0
31 0.074372563529918
32 1.26725287384350
33 -0.001018613990594
34 0.0
35 -0.029644211541495
36 -0.074372563529918
37 -1.26725287384350
38 -0.001018613990594
39 0.0
40 -0.029644211541495
 Sym=      5.1
 Ene=       0.2125
 Spin= Alpha
 Occup=    0.000000
1 0.031216494732928
2 -0.050415273246430
3 -0.77799562810159
4 -0.087103585992120
5 0.0
6 -0.15375263450113
7 -0.18100133838802
8 0.0
9 -0.43712199319447
10 0.003012898299624
11 0.010954085598409
12 -0.013966983898032
13 0.0
14 -0.009689224384879
15 0.0
16 0.031216494732928
17 -0.050415273246430
18 -0.77799562810159
19 0.087103585992120
20 0.0
21 0.15375263450113
22 0.18100133838802
23 0.0
24 0.43712199319447
25 0.003012898299624
26 0.010954085598409
27 -0.013966983898032
28 0.0
29 -0.009689224384879
30 0.0
31 0.011041283093672
32 1.13091260082036
33 -0.012696913957333
34 0.0
35 -0.019369333056662
36 0.011041283093672
37 1.13091260082036
38 0.012696913957333
39 0.0
40 0.019369333056662
 Sym=      5.3
 Ene=       0.5602
 Spin= Alpha
 Occup=    0.000000
1 0.051660510889548
2 -0.084986123523194
3 -2.58456423160627
4 0.21593262731050
5 0.0
6 0.13984841121916
7 2.08596545641449
8 0.0
9 0.057576613284946
10 -0.015109914394715
11 0.030771402057956
12 -0.015661487663241
13 0.0
14 -0.025210686795381
15 0.0
16 -0.051660510889548
17 0.084986123523194
18 2.58456423160627
19 0.21593262731050
20 0.0
21 0.13984841121916
22 2.08596545641449
23 0.0
24 0.057576613284946
25 0.015109914394715
26 -0.030771402057956
27 0.015661487663241
28 0.0
29 0.025210686795381
30 0.0
31 -0.17936275132082
32 -0.14462052975965
33 -0.020347572083912
34 0.0
35 -0.045482611998760
36 0.17936275132082
37 0.14462052975965
38 -0.020347572083912
39 0.0
40 -0.045482611998760
 Sym=      6.3
 Ene=       0.7856
 Spin= Alpha
 Occup=    0.000000
1 -0.043048237182182
2 -0.25019980177662
3 -0.65480699040612
4 0.011400327297433
5 0.0
6 -0.13929112040882
7 0.68721218448049
8 0.0
9 0.033983592833320
10 -0.031223582428922
11 -0.072436805478281
12 0.10366038790720
13 0.0
14 0.10828770609298
15 0.0
16 0.043048237182182
17 0.25019980177662
18 0.65480699040612
19 0.011400327297433
20 0.0
21 -0.13929112040882
22 0.68721218448049
23 0.0
24 0.033983592833320
25 0.031223582428922
26 0.072436805478281
27 -0.10366038790720
28 0.0
29 -0.10828770609298
30 0.0
31 0.78726622936148
32 -0.81094519578259
33 0.11850879543022
34 0.0
35 0.18393787915193
36 -0.78726622936148
37 0.81094519578259
38 0.11850879543022
39 0.0
40 0.18393787915193
 Sym=      6.1
 Ene=       0.7944
 Spin= Alpha
 Occup=    0.000000
1 -0.086599901314607
2 -0.20157682606260
3 -0.043712875769444
4 0.31790976654854
5 0.0
6 -0.12930545671627
7 -0.62264832460541
8 0.0
9 -0.51395418568026
10 -0.072949887251150
11 -0.028338213347596
12 0.10128810059875
13 0.0
14 0.011274601451637
15 0.0
16 -0.086599901314607
17 -0.20157682606260
18 -0.043712875769444
19 -0.31790976654854
20 0.0
21 0.12930545671627
22 0.62264832460541
23 0.0
24 0.51395418568026
25 -0.072949887251150
26 -0.028338213347596
27 0.10128810059875
28 0.0
29 0.011274601451637
30 0.0
31 0.65974912525359
32 -0.33495329250539
33 -0.064369696460251
34 0.0
35 0.090366364238146
36 0.65974912525359
37 -0.33495329250539
38 0.064369696460251
39 0.0
40 -0.090366364238146
 Sym=      7.1
 Ene=       0.8988
 Spin= Alpha
 Occup=    0.000000
1 -0.058770467626882
2 -0.11012549123794
3 -0.26851844226417
4 0.23631383954973
5 0.0
6 0.50108165010593
7 -0.37154861003595
8 0.0
9 -0.61518386120662
10 -0.017616676542089
11 0.096359734551943
12 -0.078743058009854
13 0.0
14 -0.007757193638145
15 0.0
16 -0.058770467626882
17 -0.11012549123794
18 -0.26851844226417
19 -0.23631383954973
20 0.0
21 -0.50108165010593
22 0.37154861003595
23 0.0
24 0.61518386120662
25 -0.017616676542089
26 0.096359734551943
27 -0.078743058009854
28 0.0
29 -0.007757193638145
30 0.0
31 -0.30737976584864
32 0.49460805862995
33 -0.14008258532466
34 0.0
35 -0.22059809349746
36 -0.30737976584864
37 0.49460805862995
38 0.14008258532466
39 0.0
40 0.22059809349746
 Sym=      2.2
 Ene=       0.9352
 Spin= Alpha
 Occup=    0.000000
1 0.0
2 0.0
3 0.0
4 0.0
5 -0.68507657741824
6 0.0
7 0.0
8 0.61364336068691
9 0.0
10 0.0
11 0.0
12 0.0
13 0.099637574608980
14 0.0
15 0.000491006867721
16 0.0
17 0.0
18 0.0
19 0.0
20 -0.68507657741824
21 0.0
22 0.0
23 0.61364336068691
24 0.0
25 0.0
26 0.0
27 0.0
28 -0.099637574608980
29 0.0
30 -0.000491006867721
31 0.0
32 0.0
33 0.0
34 0.007778370135914
35 0.0
36 0.0
37 0.0
38 0.0
39 0.007778370135914
40 0.0
 Sym=      7.3
 Ene=       0.9811
 Spin= Alpha
 Occup=    0.000000
1 0.011768060096988
2 0.030415710839743
3 0.77640555340632
4 0.53442094158823
5 0.0
6 -0.42903639002343
7 -0.58106309801846
8 0.0
9 0.67378183334745
10 0.12703306434424
11 -0.074060907927188
12 -0.052972156417056
13 0.0
14 0.072348436517266
15 0.0
16 -0.011768060096988
17 -0.030415710839743
18 -0.77640555340632
19 0.53442094158823
20 0.0
21 -0.42903639002343
22 -0.58106309801846
23 0.0
24 0.67378183334745
25 -0.12703306434424
26 0.074060907927188
27 0.052972156417056
28 0.0
29 -0.072348436517266
30 0.0
31 -0.24540802219233
32 -0.27763058202417
33 0.090606237618078
34 0.0
35 0.073272902106494
36 0.24540802219233
37 0.27763058202417
38 0.090606237618078
39 0.0
40 0.073272902106494
 Sym=      8.1
 Ene=       1.0182
 Spin= Alpha
 Occup=    0.000000
1 0.012656968217716
2 0.11553064460993
3 -0.093775905433775
4 0.38138355500944
5 0.0
6 -0.31379381773568
7 -0.50364550874649
8 0.0
9 1.13422078149940
10 -0.042468095153328
11 0.10521751660690
12 -0.062749421453573
13 0.0
14 -0.032109564003872
15 0.0
16 0.012656968217716
17 0.11553064460993
18 -0.093775905433775
19 -0.38138355500944
20 0.0
21 0.31379381773568
22 0.50364550874649
23 0.0
24 -1.13422078149940
25 -0.042468095153328
26 0.10521751660690
27 -0.062749421453573
28 0.0
29 -0.032109564003872
30 0.0
31 -0.59137146667376
32 0.18601730471225
33 0.11761604982919
34 0.0
35 -0.020989272915550
36 -0.59137146667376
37 0.18601730471225
38 -0.11761604982919
39 0.0
40 0.020989272915550
 Sym=      2.4
 Ene=       1.0639
 Spin= Alpha
 Occup=    0.000000
1 0.0
2 0.0
3 0.0
4 0.0
5 -0.73625499544763
6 0.0
7 0.0
8 1.08508677470442
9 0.0
10 0.0
11 0.0
12 0.0
13 -0.034673522302366
14 0.0
15 -0.005681229954921
16 0.0
17 0.0
18 0.0
19 0.0
20 0.73625499544763
21 0.0
22 0.0
23 -1.08508677470442
24 0.0
25 0.0
26 0.0
27 0.0
28 -0.034673522302366
29 0.0
30 -0.005681229954921
31 0.0
32 0.0
33 0.0
34 -0.029071647357078
35 0.0
36 0.0
37 0.0
38 0.0
39 0.029071647357078
40 0.0
 Sym=      8.3
 Ene=       1.1389
 Spin= Alpha
 Occup=    0.000000
1 -0.017494764272132
2 -0.000082329944354
3 -0.69598320192359
4 -0.46659057446911
5 0.0
6 -0.41238767101135
7 1.42100944569780
8 0.0
9 0.79776740903011
10 -0.15927036426014
11 0.067795009084574
12 0.091475355175566
13 0.0
14 -0.006620205774016
15 0.0
16 0.017494764272132
17 0.000082329944354
18 0.69598320192359
19 -0.46659057446911
20 0.0
21 -0.41238767101135
22 1.42100944569780
23 0.0
24 0.79776740903011
25 0.15927036426014
26 -0.067795009084574
27 -0.091475355175566
28 0.0
29 0.006620205774016
30 0.0
31 -0.30590521648734
32 -0.74358133215438
33 -0.13852621373926
34 0.0
35 0.23569049048110
36 0.30590521648734
37 0.74358133215438
38 -0.13852621373926
39 0.0
40 0.23569049048110
 Sym=      9.1
 Ene=       1.2833
 Spin= Alpha
 Occup=    0.000000
1 -0.50877290391178
2 -1.14123368645679
3 1.72325305234367
4 -0.12485324502668
5 0.0
6 -0.017994545559279
7 0.25651925540099
8 0.0
9 0.72299545392711
10 -0.12231144851949
11 0.13450209985779
12 -0.012190651338292
13 0.0
14 0.021284555985851
15 0.0
16 -0.50877290391178
17 -1.14123368645679
18 1.72325305234367
19 0.12485324502668
20 0.0
21 0.017994545559279
22 -0.25651925540099
23 0.0
24 -0.72299545392711
25 -0.12231144851949
26 0.13450209985779
27 -0.012190651338292
28 0.0
29 0.021284555985851
30 0.0
31 -0.34562851994157
32 -0.71611542355653
33 0.026815969261420
34 0.0
35 0.18164103063944
36 -0.34562851994157
37 -0.71611542355653
38 -0.026815969261420
39 0.0
40 -0.18164103063944
 Sym=      3.4
 Ene=       1.4175
 Spin= Alpha
 Occup=    0.000000
1 0.0
2 0.0
3 0.0
4 0.0
5 -0.057026216025472
6 0.0
7 0.0
8 -0.30227179953737
9 0.0
10 0.0
11 0.0
12 0.0
13 -0.005152272183393
14 0.0
15 0.30542561922656
16 0.0
17 0.0
18 0.0
19 0.0
20 0.057026216025472
21 0.0
22 0.0
23 0.30227179953737
24 0.0
25 0.0
26 0.0
27 0.0
28 -0.005152272183393
29 0.0
30 0.30542561922656
31 0.0
32 0.0
33 0.0
34 0.55506011492395
35 0.0
36 0.0
37 0.0
38 0.0
39 -0.55506011492395
40 0.0
 Sym=      9.3
 Ene=       1.4717
 Spin= Alpha
 Occup=    0.000000
1 0.27938400907805
2 0.64871450902255
3 -1.96505898640396
4 -0.29995465519429
5 0.0
6 -0.071536065310064
7 0.91534486299005
8 0.0
9 0.19335056523936
10 -0.099982009331397
11 0.091637519596070
12 0.008344489735327
13 0.0
14 0.24579788853124
15 0.0
16 -0.27938400907805
17 -0.64871450902255
18 1.96505898640396
19 -0.29995465519429
20 0.0
21 -0.071536065310064
22 0.91534486299005
23 0.0
24 0.19335056523936
25 0.099982009331397
26 -0.091637519596070
27 -0.008344489735327
28 0.0
29 -0.24579788853124
30 0.0
31 -0.051116543808598
32 -0.022697016457573
33 0.35951476729102
34 0.0
35 -0.24176155309442
36 0.051116543808598
37 0.022697016457573
38 0.35951476729102
39 0.0
40 -0.24176155309442
 Sym=      3.2
 Ene=       1.4966
 Spin= Alpha
 Occup=    0.000000
1 0.0
2 0.0
3 0.0
4 0.0
5 0.062463030640401
6 0.0
7 0.0
8 -0.20650853127323
9 0.0
10 0.0
11 0.0
12 0.0
13 0.14060496567110
14 0.0
15 0.16922694086009
16 0.0
17 0.0
18 0.0
19 0.0
20 0.062463030640401
21 0.0
22 0.0
23 -0.20650853127323
24 0.0
25 0.0
26 0.0
27 0.0
28 -0.14060496567110
29 0.0
30 -0.16922694086009
31 0.0
32 0.0
33 0.0
34 0.62707089447108
35 0.0
36 0.0
37 0.0
38 0.0
39 0.62707089447108
40 0.0
 Sym=     10.3
 Ene=       1.6753
 Spin= Alpha
 Occup=    0.000000
1 -0.58636185954936
2 -1.20069535220081
3 4.86651597374854
4 -0.096524736470419
5 0.0
6 0.084497074233862
7 -1.98538716966814
8 0.0
9 0.44323594686431
10 0.057572104686038
11 0.10983613472384
12 -0.16740823940988
13 0.0
14 0.13019409147949
15 0.0
16 0.58636185954936
17 1.20069535220081
18 -4.86651597374854
19 -0.096524736470419
20 0.0
21 0.084497074233862
22 -1.98538716966814
23 0.0
24 0.44323594686431
25 -0.057572104686038
26 -0.10983613472384
27 0.16740823940988
28 0.0
29 -0.13019409147949
30 0.0
31 -0.57886275669679
32 -0.24541724834766
33 0.36736796802822
34 0.0
35 0.073069719864569
36 0.57886275669679
37 0.24541724834766
38 0.36736796802822
39 0.0
40 0.073069719864569
 Sym=     10.1
 Ene=       1.8092
 Spin= Alpha
 Occup=    0.000000
1 -0.027779327016720
2 -0.075716615217263
3 -0.31566428731409
4 0.015501723062280
5 0.0
6 0.14198219965287
7 -0.48635915606858
8 0.0
9 -0.76437904793606
10 -0.062115481624772
11 0.13841909679403
12 -0.076303615169258
13 0.0
14 0.096239953059020
15 0.0
16 -0.027779327016720
17 -0.075716615217263
18 -0.31566428731409
19 -0.015501723062280
20 0.0
21 -0.14198219965287
22 0.48635915606858
23 0.0
24 0.76437904793606
25 -0.062115481624772
26 0.13841909679403
27 -0.076303615169258
28 0.0
29 0.096239953059020
30 0.0
31 0.41133781934991
32 0.088492315397574
33 0.69792933844917
34 0.0
35 -0.24491743972639
36 0.41133781934991
37 0.088492315397574
38 -0.69792933844917
39 0.0
40 0.24491743972639
 Sym=      4.2
 Ene=       1.8577
 Spin= Alpha
 Occup=    0.000000
1 0.0
2 0.0
3 0.0
4 0.0
5 0.22312776743107
6 0.0
7 0.0
8 0.022117384128718
9 0.0
10 0.0
11 0.0
12 0.0
13 0.58269650823077
14 0.0
15 -0.12957377180782
16 0.0
17 0.0
18 0.0
19 0.0
20 0.22312776743107
21 0.0
22 0.0
23 0.022117384128718
24 0.0
25 0.0
26 0.0
27 0.0
28 -0.58269650823077
29 0.0
30 0.12957377180782
31 0.0
32 0.0
33 0.0
34 -0.19261207263422
35 0.0
36 0.0
37 0.0
38 0.0
39 -0.19261207263422
40 0.0