[Molden Format]
[Molpro variables]
_NUMVAR=  828.0000000000000    
_AVOGAD= 0.6022136736000000E+24
_BOLTZ= 0.1380658000000000E-22
_CLIGHT=  29979245800.00000    
_EV2006= 0.3674930886769165E-01
_EV= 0.3674932534394180E-01
_ENULL= 0.8854187817000000E-11
_KJOULE= 0.3808798324128737E-03
_KJOULE/MOL= 0.3808798324128737E-03
_CM= 0.4556335267302901E-05
_CM-1= 0.4556335267302901E-05
_DEB2SI= 0.3335641000000000E-29
_AMU2AU=  1822.888390000000    
_KCAL= 0.1593601117815568E-02
_KCAL/MOL= 0.1593601117815568E-02
_KELVIN2006= 0.3166828861084835E-05
_KELVIN= 0.3166814820820034E-05
_JOULE= 0.4359748200000000E-17
_HERTZ2006= 0.1519829850815779E-15
_HERTZ= 0.1519829846011223E-15
_HZ2006= 0.1519829850815779E-15
_HZ= 0.1519829846011223E-15
_JPCAL=  4.184000000000000    
_PLANCK= 0.6626075540000000E-33
_TOA2006= 0.5291772490000000    
_TOA= 0.5291772090000000    
_TOANG2006= 0.5291772490000000    
_TOANG= 0.5291772090000000    
_TORAD= 0.1745329251994330E-01
_TOCM=  219474.6306700000    
_TODEBYE=  2.541580000000000    
_TOEV2006=  27.21139610000000    
_TOE= 0.4803242000000000E-09
_TOEV=  27.21138390000000    
_TOHERTZ2006=  6579683899900000.    
_TOHERTZ=  6579683920700000.    
_TOHZ2006=  6579683899900000.    
_TOHZ=  6579683920700000.    
_TOK2006=  315773.3000000000    
_TOK=  315774.7000000000    
_TOKCAL=  627.5096000000000    
_TOKELVIN2006=  315773.3000000000    
_TOKELVIN=  315774.7000000000    
_TOKJ=  2625.500000000000    
_TOKJOULE=  2625.500000000000    
_TOKG= 0.1660565586000000E-26
_ANG2006=  1.889725988578923    
_ANG=  1.889726131421507    
_ANGSTROM2006=  1.889725988578923    
_ANGSTROM=  1.889726131421507    
_RPAREF=  0.000000000000000    
_RPADISS=  0.000000000000000    
_IGNORE_UNDEF=  2.000000000000000    
_STRICTCHECK=  0.000000000000000    
_SEW_ONEEL=  0.000000000000000    
_CPPDONE=FALSE
_DKROLL_DONE=  0.000000000000000    
_FOCKDONE=TRUE
_GRADONE=FALSE
_HESSDONE=FALSE
_INTDONE=TRUE
_SCFDONE=TRUE
_MODUL_BLOCK=FALSE
_MODUL_CUDA=FALSE
_MODUL_SLATER=FALSE
_MODUL_MRCC=FALSE
_MODUL_NBO6=FALSE
_MODUL_NECI=TRUE
_MODUL_AIMS=TRUE
_MRCC_EXEC=
_FITC_AO_SAVED=FALSE
_FITC_MO_SAVED=FALSE
_SHARED_FS=TRUE
_LSTYP=SEWARD
_INTYP=INTS
_GEOMTYP=ZMAT
_GRADTYP=ALASKA
_DIRECT=FALSE
_DKHO= -1.000000000000000    
_SYNCM=  0.000000000000000    
_BASIS=USERDEF
_ZORIENT=  1.000000000000000    
_NELEC=  42.00000000000000    
!SPIN=  0.000000000000000    
_QSDSTEP=  0.000000000000000    
_QSDIRC=  0.000000000000000    
_PROGRAM=MATROP
_CPUSTEP= 0.9999999999999787E-02
_SYSSTEP= 0.2000000000000046E-01
_WALLSTEP= 0.2000000000000000    
!DFSCF=  0.000000000000000    
!SCSGRD=  0.000000000000000    
_BASINP=  610.0000000000000    
_CPUTOT=  13.32000000000000    
_DFTEXFAC=  1.000000000000000    
_DMX=  0.000000000000000    
_DMY=  0.000000000000000    
_DMZ=  0.000000000000000    
_DMX_SCF=  0.000000000000000    
_DMY_SCF=  0.000000000000000    
_DMZ_SCF=  0.000000000000000    
_EHOMO=-0.3326993314662972    
_ELUMO= 0.1358173769115326    
_ENUC=  202.7384749397557    
_EPS1= -11.25513954925189    
_EPS2=-0.4728173540111635    
_EPS3= -11.25417969200839    
_EPS4=-0.2911986125245981    
_EPS5= -11.25499089748774    
_EPS6=-0.2947338616794380    
_EPS7= -11.25306356154547    
_EPS8= 0.6846775804114133E-01
_GRADEXFAC=  9999.000000000000    
_GRADMETHOD=TRUE
_NMRMETHOD=  0.000000000000000    
!GRID_FREEZE= -1.000000000000000    
_ITERATIONS=  0.000000000000000    
_LASTNELEC=  10.00000000000000    
_LASTSPIN=  2.000000000000000    
_LASTSYM=  1.000000000000000    
_MPP_PROG=  0.000000000000000    
_NPROC_MPP=  1.000000000000000    
_NPROC_MPPX=  1.000000000000000    
_NPROC_SMP=  16.00000000000000    
_NUMSTEP=  0.000000000000000    
_ORBITAL=  2141.200000000000    
_PI=  3.141592653589793    
_SEIG_MIN= 0.3750168419059645E-03
_SEWPROP=TRUE
_STATUS=  0.000000000000000    
_SYSTOT=  5.870000000000000    
_VERSION=  2012001.000000000    
_WALLTOT=  110.7900000000000    
_DATE=24-Jan-19
_LASTORB=MCSCF
_MACHINE=Linux-4.9.0-8-amd64/nympha18.meta.zcu.cz(x86_64) (16 PROC) 64 bit serial version
_OUTPUT=/auto/brno2/home/masiz4am/git/UKRmol-in/tests/suite/D2h_target_CAS1/molpro.xml
_PGROUP=D2h
_TIME=16:36:07
_LIBMOL=/afs/ics.muni.cz/software/molpro-2012.1/molprop_2012_1_Linux_x86_64_i8/lib/
!VIBCNT=  0.000000000000000    
!RGHFCNT=  0.000000000000000    
!SURFREC=  0.000000000000000    
!POLYREC=  0.000000000000000    
!DIPREC=  0.000000000000000    
!VSCFREC=  0.000000000000000    
!VCIREC=  0.000000000000000    
!PVCIREC=  0.000000000000000    
!VMP2REC=  0.000000000000000    
!VMCSCFREC=  0.000000000000000    
!VMRCIREC=  0.000000000000000    
!VIBINFO=  0.000000000000000    
!GAREC=  0.000000000000000    
!SCFORB=  21002.00000000000    
!MCORB=  21412.00000000000    
!NEWMOL= -1.000000000000000    
!NEWSYM= -1.000000000000000    
_SLFILES=slscratch
_NGSSTO=  9.000000000000000    
_SIN=SIN
_COS=COS
_TAN=TAN
_ACOS=ACOS
_ASIN=ASIN
_ATAN=ATAN
_COSH=COSH
_SINH=SINH
_TANH=TANH
_ABS=ABS
_MOD=MOD
_ERF=ERF
_REFC=REFC
_ERFC=ERFC
_HYPOT=HYPOT
_J0=J0
_J1=J1
_JN=JN
_GAMMA=GAMMA
_LGAMMA=LGAMMA
_Y0=Y0
_Y1=Y1
_YN=YN
_EXP=EXP
_LOG=LOG
_LOG10=LOG10
_SQRT=SQRT
_INT=INT
_NINT=NINT
_MAX=MAX
_MIN=MIN
_COSMO=  0.000000000000000    
_COSMOIT=  0.000000000000000    
_COSMOES=  0.000000000000000    
_COSMOEDS=  0.000000000000000    
_COSMOEC=  0.000000000000000    
_COSMOEDCORR=  0.000000000000000    
_FEPSI=  1.000000000000000    
_SL_IsMM=  0.000000000000000    
_SL_NSYM=  8.000000000000000    
_SL_System_BitSw=  0.000000000000000    
_SL_Unique_atoms=  0.000000000000000    
_SL_GRAD=  0.000000000000000    
_SL_MAXUPD_Hess=  5.000000000000000    
_SL_N_PRINT_COD=  5.000000000000000    
_SL_PRINT_CODES=  0.000000000000000    
_SL_BasType=  0.000000000000000    
_SL_Energy_Pred=  0.000000000000000    
_SL_New_Coords=  0.000000000000000    
_SL_Total_Nuclea=  0.000000000000000    
_SL_Highest_Mltp=  0.000000000000000    
_SL_Ref_Geom=  0.000000000000000    
_SL_Symmetry_ope=  1.000000000000000    
_SL_agrad=  0.000000000000000    
_SL_GrdMax=  0.000000000000000    
_SL_GrdNorm=  0.000000000000000    
_SL_GrdRMS=  0.000000000000000    
!LATTICE= -1.000000000000000    
!NEWLATTICE=  0.000000000000000    
!LATGRAD_VAR=FALSE
!SEW_LATTICE=  1.000000000000000    
!LOCAL=  0.000000000000000    
!SAVEDOM= -1.000000000000000    
!RESTDOM= -1.000000000000000    
!SAVEDOM_HF= -1.000000000000000    
!RESTDOM_HF= -1.000000000000000    
!HESSREC=  0.000000000000000    
!FREQREC=  0.000000000000000    
!NMODREC=  0.000000000000000    
!GTASKS=  0.000000000000000    
!HTASKS=  0.000000000000000    
!THRCHG= 0.1000000000000000    
!DEBUG= -1.000000000000000    
!CFIT_CPHF=  0.000000000000000    
!RDOMAUX_CPHF=  3.000000000000000    
!THRAO_CPHF= 0.1000000000000000E-09
!THRMO_CPHF= 0.1000000000000000E-08
!THROV_CPHF= 0.1000000000000000E-11
!THRSW_CPHF= 0.1000000000000000E-09
!THRPROD_CPHF= 0.1000000000000000E-08
!THRAOPR_CPHF= 0.1000000000000000E-11
!CFIT_SCFGRD=  0.000000000000000    
!RDOMAUX_SCFGRD=  5.000000000000000    
!THRAO_SCFGRD= 0.1000000000000000E-09
!THRMO_SCFGRD= 0.1000000000000000E-08
!THROV_SCFGRD= 0.1000000000000000E-11
!THRSW_SCFGRD= 0.1000000000000000E-09
!THRPROD_SCFGRD= 0.1000000000000000E-08
!THRAOPR_SCFGRD= 0.1000000000000000E-11
!LOCFIT_SCF=  0.000000000000000    
!LOCFIT_MP2= -1.000000000000000    
_RIDOM=  0.000000000000000    
!CC2_METHOD=  0.000000000000000    
_BASIS2006=FALSE
_SVDDEL= -1.000000000000000    
_SVDDELA= -1.000000000000000    
_SVDDELP= -1.000000000000000    
_SVDDELF= -1.000000000000000    
_SVDDELS= -1.000000000000000    
_SVDDEL_ABS= -1.000000000000000    
_SVDDELA_ABS= -1.000000000000000    
_SVDDELP_ABS= -1.000000000000000    
_SVDDELF_ABS= -1.000000000000000    
_SVDDELS_ABS= -1.000000000000000    
_MAXBASIS=  0.000000000000000    
!OPT_CONICAL=  0.000000000000000    
!CLEARSP_JGRID=  0.000000000000000    
_4EXT_NDISKS=  1.000000000000000    
!ZMP=  0.000000000000000    
_MAXIT_ZMP=  500.0000000000000    
_MAXDIS_ZMP=  100.0000000000000    
_ACCU_ZMP=  14.00000000000000    
_SHIFTA_ZMP= -100.0000000000000    
!EMBEDFLAG=  1.000000000000000    
!EMBED=FALSE
!EMBED_F12=FALSE
!EMBEDNUC=  0.000000000000000    
_EMBEDENERGY=  0.000000000000000    
_KSPACETIME=  0.000000000000000    
_RSPACETIME=  0.000000000000000    
!EMBED_DFC=FALSE
!NUM_VOIDS=  0.000000000000000    
_IBODY=  0.000000000000000    
_EMBE_TOTAL=  0.000000000000000    
_EMBE_HF=  0.000000000000000    
_EMBE_CORR=  0.000000000000000    
!EDFT=  0.000000000000000    
_IFASTLATGRAD=  0.000000000000000    
_SINDEX=  0.000000000000000    
M_NAME=CASSCF(10,8)
M_CLOSED=  5.000000000000000    
M_OCC=  7.000000000000000    
GX1=  0.000000000000000    
GY1=  0.000000000000000    
GZ1=  2.645994329000000    
GX2=  0.000000000000000    
GY2= -2.291481734000000    
GZ2=  1.322997165000000    
GX3=  0.000000000000000    
GY3=  0.000000000000000    
GZ3=  4.700693397000000    
GX4=  0.000000000000000    
GY4= -4.070847725000000    
GZ4=  2.350252212000000    
GX5=  0.000000000000000    
GY5= -2.291481734000000    
GZ5= -1.322997165000000    
GX6=  0.000000000000000    
GY6=  0.000000000000000    
GZ6= -2.645994329000000    
GX7=  0.000000000000000    
GY7= -4.070847725000000    
GZ7= -2.350252212000000    
GX8=  0.000000000000000    
GY8=  0.000000000000000    
GZ8= -4.700693397000000    
GX9=  0.000000000000000    
GY9=  2.291481734000000    
GZ9= -1.322997165000000    
GX10=  0.000000000000000    
GY10=  2.291481734000000    
GZ10=  1.322997165000000    
GX11=  0.000000000000000    
GY11=  4.070847725000000    
GZ11= -2.350252212000000    
GX12=  0.000000000000000    
GY12=  4.070847725000000    
GZ12=  2.350252212000000    
_TRDMX=  0.000000000000000    
_TRDMY=  0.000000000000000    
_TRDMZ=  0.000000000000000    
_QMXX= -6.900388062535939    
_TRQMXX=-0.1181183259722046    
_QMYY=  3.314266387557154    
_TRQMYY=  4.929733930250002    
_QMZZ=  3.586121674978813    
_TRQMZZ= -4.811615604277796    
_QMXY=  0.000000000000000    
_TRQMXY=  0.000000000000000    
_QMXZ=  0.000000000000000    
_TRQMXZ=  0.000000000000000    
_QMYZ=  0.000000000000000    
_TRQMYZ=  0.000000000000000    
_QMRR= -75.59829163500109    
_TRQMRR= 0.2444550234717661    
[Atoms] Angs
C     1    6         0.0000000000        0.0000000000        1.4001998941
C     2    6         0.0000000000       -1.2125999085        0.7000999473
H     3    1         0.0000000000        0.0000000000        2.4874998122
H     4    1         0.0000000000       -2.1541998374        1.2436999060
C     5    6         0.0000000000       -1.2125999085       -0.7000999473
C     6    6         0.0000000000        0.0000000000       -1.4001998941
H     7    1         0.0000000000       -2.1541998374       -1.2436999060
H     8    1         0.0000000000        0.0000000000       -2.4874998122
C     9    6         0.0000000000        1.2125999085       -0.7000999473
C    10    6         0.0000000000        1.2125999085        0.7000999473
H    11    1         0.0000000000        2.1541998374       -1.2436999060
H    12    1         0.0000000000        2.1541998374        1.2436999060
[GTO]
  1 0
 s    8  1.00
  0.6665000000D+04  0.6915839628D-03
  0.1000000000D+04  0.5325796153D-02
  0.2280000000D+03  0.2706072104D-01
  0.6471000000D+02  0.1016568461D+00
  0.2106000000D+02  0.2745748236D+00
  0.7495000000D+01  0.4482943189D+00
  0.2797000000D+01  0.2849026107D+00
  0.5215000000D+00  0.1519485921D-01
 s    8  1.00
  0.6665000000D+04 -0.2932696527D-03
  0.1000000000D+04 -0.2318035474D-02
  0.2280000000D+03 -0.1149978604D-01
  0.6471000000D+02 -0.4682672701D-01
  0.2106000000D+02 -0.1284661688D+00
  0.7495000000D+01 -0.3012662725D+00
  0.2797000000D+01 -0.2556307023D+00
  0.5215000000D+00  0.1093793361D+01
 s    1  1.00
  0.1596000000D+00  0.1000000000D+01
 p    3  1.00
  0.9439000000D+01  0.5697925159D-01
  0.2002000000D+01  0.3132072115D+00
  0.5456000000D+00  0.7603767417D+00
 p    1  1.00
  0.1517000000D+00  0.1000000000D+01
 d    1  1.00
  0.5500000000D+00  0.1000000000D+01
  
  6 0
 s    8  1.00
  0.6665000000D+04  0.6915839628D-03
  0.1000000000D+04  0.5325796153D-02
  0.2280000000D+03  0.2706072104D-01
  0.6471000000D+02  0.1016568461D+00
  0.2106000000D+02  0.2745748236D+00
  0.7495000000D+01  0.4482943189D+00
  0.2797000000D+01  0.2849026107D+00
  0.5215000000D+00  0.1519485921D-01
 s    8  1.00
  0.6665000000D+04 -0.2932696527D-03
  0.1000000000D+04 -0.2318035474D-02
  0.2280000000D+03 -0.1149978604D-01
  0.6471000000D+02 -0.4682672701D-01
  0.2106000000D+02 -0.1284661688D+00
  0.7495000000D+01 -0.3012662725D+00
  0.2797000000D+01 -0.2556307023D+00
  0.5215000000D+00  0.1093793361D+01
 s    1  1.00
  0.1596000000D+00  0.1000000000D+01
 p    3  1.00
  0.9439000000D+01  0.5697925159D-01
  0.2002000000D+01  0.3132072115D+00
  0.5456000000D+00  0.7603767417D+00
 p    1  1.00
  0.1517000000D+00  0.1000000000D+01
 d    1  1.00
  0.5500000000D+00  0.1000000000D+01
  
  2 0
 s    8  1.00
  0.6665000000D+04  0.6915839628D-03
  0.1000000000D+04  0.5325796153D-02
  0.2280000000D+03  0.2706072104D-01
  0.6471000000D+02  0.1016568461D+00
  0.2106000000D+02  0.2745748236D+00
  0.7495000000D+01  0.4482943189D+00
  0.2797000000D+01  0.2849026107D+00
  0.5215000000D+00  0.1519485921D-01
 s    8  1.00
  0.6665000000D+04 -0.2932696527D-03
  0.1000000000D+04 -0.2318035474D-02
  0.2280000000D+03 -0.1149978604D-01
  0.6471000000D+02 -0.4682672701D-01
  0.2106000000D+02 -0.1284661688D+00
  0.7495000000D+01 -0.3012662725D+00
  0.2797000000D+01 -0.2556307023D+00
  0.5215000000D+00  0.1093793361D+01
 s    1  1.00
  0.1596000000D+00  0.1000000000D+01
 p    3  1.00
  0.9439000000D+01  0.5697925159D-01
  0.2002000000D+01  0.3132072115D+00
  0.5456000000D+00  0.7603767417D+00
 p    1  1.00
  0.1517000000D+00  0.1000000000D+01
 d    1  1.00
  0.5500000000D+00  0.1000000000D+01
  
  5 0
 s    8  1.00
  0.6665000000D+04  0.6915839628D-03
  0.1000000000D+04  0.5325796153D-02
  0.2280000000D+03  0.2706072104D-01
  0.6471000000D+02  0.1016568461D+00
  0.2106000000D+02  0.2745748236D+00
  0.7495000000D+01  0.4482943189D+00
  0.2797000000D+01  0.2849026107D+00
  0.5215000000D+00  0.1519485921D-01
 s    8  1.00
  0.6665000000D+04 -0.2932696527D-03
  0.1000000000D+04 -0.2318035474D-02
  0.2280000000D+03 -0.1149978604D-01
  0.6471000000D+02 -0.4682672701D-01
  0.2106000000D+02 -0.1284661688D+00
  0.7495000000D+01 -0.3012662725D+00
  0.2797000000D+01 -0.2556307023D+00
  0.5215000000D+00  0.1093793361D+01
 s    1  1.00
  0.1596000000D+00  0.1000000000D+01
 p    3  1.00
  0.9439000000D+01  0.5697925159D-01
  0.2002000000D+01  0.3132072115D+00
  0.5456000000D+00  0.7603767417D+00
 p    1  1.00
  0.1517000000D+00  0.1000000000D+01
 d    1  1.00
  0.5500000000D+00  0.1000000000D+01
  
  9 0
 s    8  1.00
  0.6665000000D+04  0.6915839628D-03
  0.1000000000D+04  0.5325796153D-02
  0.2280000000D+03  0.2706072104D-01
  0.6471000000D+02  0.1016568461D+00
  0.2106000000D+02  0.2745748236D+00
  0.7495000000D+01  0.4482943189D+00
  0.2797000000D+01  0.2849026107D+00
  0.5215000000D+00  0.1519485921D-01
 s    8  1.00
  0.6665000000D+04 -0.2932696527D-03
  0.1000000000D+04 -0.2318035474D-02
  0.2280000000D+03 -0.1149978604D-01
  0.6471000000D+02 -0.4682672701D-01
  0.2106000000D+02 -0.1284661688D+00
  0.7495000000D+01 -0.3012662725D+00
  0.2797000000D+01 -0.2556307023D+00
  0.5215000000D+00  0.1093793361D+01
 s    1  1.00
  0.1596000000D+00  0.1000000000D+01
 p    3  1.00
  0.9439000000D+01  0.5697925159D-01
  0.2002000000D+01  0.3132072115D+00
  0.5456000000D+00  0.7603767417D+00
 p    1  1.00
  0.1517000000D+00  0.1000000000D+01
 d    1  1.00
  0.5500000000D+00  0.1000000000D+01
  
 10 0
 s    8  1.00
  0.6665000000D+04  0.6915839628D-03
  0.1000000000D+04  0.5325796153D-02
  0.2280000000D+03  0.2706072104D-01
  0.6471000000D+02  0.1016568461D+00
  0.2106000000D+02  0.2745748236D+00
  0.7495000000D+01  0.4482943189D+00
  0.2797000000D+01  0.2849026107D+00
  0.5215000000D+00  0.1519485921D-01
 s    8  1.00
  0.6665000000D+04 -0.2932696527D-03
  0.1000000000D+04 -0.2318035474D-02
  0.2280000000D+03 -0.1149978604D-01
  0.6471000000D+02 -0.4682672701D-01
  0.2106000000D+02 -0.1284661688D+00
  0.7495000000D+01 -0.3012662725D+00
  0.2797000000D+01 -0.2556307023D+00
  0.5215000000D+00  0.1093793361D+01
 s    1  1.00
  0.1596000000D+00  0.1000000000D+01
 p    3  1.00
  0.9439000000D+01  0.5697925159D-01
  0.2002000000D+01  0.3132072115D+00
  0.5456000000D+00  0.7603767417D+00
 p    1  1.00
  0.1517000000D+00  0.1000000000D+01
 d    1  1.00
  0.5500000000D+00  0.1000000000D+01
  
  3 0
 s    3  1.00
  0.1301000000D+02  0.3349872639D-01
  0.1962000000D+01  0.2348008012D+00
  0.4446000000D+00  0.8136829579D+00
 s    1  1.00
  0.1220000000D+00  0.1000000000D+01
 p    1  1.00
  0.7270000000D+00  0.1000000000D+01
  
  8 0
 s    3  1.00
  0.1301000000D+02  0.3349872639D-01
  0.1962000000D+01  0.2348008012D+00
  0.4446000000D+00  0.8136829579D+00
 s    1  1.00
  0.1220000000D+00  0.1000000000D+01
 p    1  1.00
  0.7270000000D+00  0.1000000000D+01
  
  4 0
 s    3  1.00
  0.1301000000D+02  0.3349872639D-01
  0.1962000000D+01  0.2348008012D+00
  0.4446000000D+00  0.8136829579D+00
 s    1  1.00
  0.1220000000D+00  0.1000000000D+01
 p    1  1.00
  0.7270000000D+00  0.1000000000D+01
  
  7 0
 s    3  1.00
  0.1301000000D+02  0.3349872639D-01
  0.1962000000D+01  0.2348008012D+00
  0.4446000000D+00  0.8136829579D+00
 s    1  1.00
  0.1220000000D+00  0.1000000000D+01
 p    1  1.00
  0.7270000000D+00  0.1000000000D+01
  
 11 0
 s    3  1.00
  0.1301000000D+02  0.3349872639D-01
  0.1962000000D+01  0.2348008012D+00
  0.4446000000D+00  0.8136829579D+00
 s    1  1.00
  0.1220000000D+00  0.1000000000D+01
 p    1  1.00
  0.7270000000D+00  0.1000000000D+01
  
 12 0
 s    3  1.00
  0.1301000000D+02  0.3349872639D-01
  0.1962000000D+01  0.2348008012D+00
  0.4446000000D+00  0.8136829579D+00
 s    1  1.00
  0.1220000000D+00  0.1000000000D+01
 p    1  1.00
  0.7270000000D+00  0.1000000000D+01
 
 
[MO]
 Sym=      1.1
 Ene=     -11.2551
 Spin= Alpha
 Occup=    2.000000
1 0.55447394900449
2 0.001688546508579
3 -0.003974757810419
4 0.0
5 0.0
6 0.000287161123908
7 0.0
8 0.0
9 0.000462971971188
10 -0.000163693853419
11 -0.000026291819094
12 0.000189985672513
13 0.0
14 0.0
15 0.0
16 0.55447394900449
17 0.001688546508579
18 -0.003974757810419
19 0.0
20 0.0
21 -0.000287161123908
22 0.0
23 0.0
24 -0.000462971971188
25 -0.000163693853419
26 -0.000026291819094
27 0.000189985672513
28 0.0
29 0.0
30 0.0
31 0.31146954642952
32 0.001126339737288
33 -0.000649736983071
34 0.0
35 -0.000560389833376
36 -0.000139343264776
37 0.0
38 0.000331342892507
39 -0.000141529463983
40 0.000012822981818
41 -0.000037122623743
42 0.000024299641924
43 0.0
44 0.0
45 -0.000097646716666
46 0.31146954642952
47 0.001126339737288
48 -0.000649736983071
49 0.0
50 -0.000560389833376
51 0.000139343264776
52 0.0
53 0.000331342892507
54 0.000141529463983
55 0.000012822981818
56 -0.000037122623743
57 0.000024299641924
58 0.0
59 0.0
60 0.000097646716666
61 0.31146954642952
62 0.001126339737288
63 -0.000649736983071
64 0.0
65 0.000560389833376
66 0.000139343264776
67 0.0
68 -0.000331342892507
69 0.000141529463983
70 0.000012822981818
71 -0.000037122623743
72 0.000024299641924
73 0.0
74 0.0
75 -0.000097646716666
76 0.31146954642952
77 0.001126339737288
78 -0.000649736983071
79 0.0
80 0.000560389833376
81 -0.000139343264776
82 0.0
83 -0.000331342892507
84 -0.000141529463983
85 0.000012822981818
86 -0.000037122623743
87 0.000024299641924
88 0.0
89 0.0
90 0.000097646716666
91 -0.000210007404083
92 0.000719607271919
93 0.0
94 0.0
95 0.000216325648040
96 -0.000210007404083
97 0.000719607271919
98 0.0
99 0.0
100 -0.000216325648040
101 0.000264307337488
102 0.000693443747863
103 0.0
104 -0.000034660310124
105 0.000003868679146
106 0.000264307337488
107 0.000693443747863
108 0.0
109 -0.000034660310124
110 -0.000003868679146
111 0.000264307337488
112 0.000693443747863
113 0.0
114 0.000034660310124
115 -0.000003868679146
116 0.000264307337488
117 0.000693443747863
118 0.0
119 0.000034660310124
120 0.000003868679146
 Sym=      1.5
 Ene=     -11.2550
 Spin= Alpha
 Occup=    2.000000
1 0.65794398071250
2 0.002921622968857
3 -0.006229015074144
4 0.0
5 0.0
6 -0.000111995576728
7 0.0
8 0.0
9 0.001106133572404
10 -0.000172461268769
11 0.000000505383069
12 0.000171955885700
13 0.0
14 0.0
15 0.0
16 -0.65794398071250
17 -0.002921622968857
18 0.006229015074144
19 0.0
20 0.0
21 -0.000111995576728
22 0.0
23 0.0
24 0.001106133572404
25 0.000172461268769
26 -0.000000505383069
27 -0.000171955885700
28 0.0
29 0.0
30 0.0
31 0.18591681275192
32 0.000722393370544
33 -0.000440764922595
34 0.0
35 -0.000018040853961
36 -0.000045473223819
37 0.0
38 0.000952987182236
39 0.000842667783995
40 0.000103701493958
41 -0.000084588081187
42 -0.000019113412771
43 0.0
44 0.0
45 -0.000045449679832
46 -0.18591681275192
47 -0.000722393370544
48 0.000440764922595
49 0.0
50 0.000018040853961
51 -0.000045473223819
52 0.0
53 -0.000952987182236
54 0.000842667783995
55 -0.000103701493958
56 0.000084588081187
57 0.000019113412771
58 0.0
59 0.0
60 -0.000045449679832
61 -0.18591681275192
62 -0.000722393370544
63 0.000440764922595
64 0.0
65 -0.000018040853961
66 -0.000045473223819
67 0.0
68 0.000952987182236
69 0.000842667783995
70 -0.000103701493958
71 0.000084588081187
72 0.000019113412771
73 0.0
74 0.0
75 0.000045449679832
76 0.18591681275192
77 0.000722393370544
78 -0.000440764922595
79 0.0
80 0.000018040853961
81 -0.000045473223819
82 0.0
83 -0.000952987182236
84 0.000842667783995
85 0.000103701493958
86 -0.000084588081187
87 -0.000019113412771
88 0.0
89 0.0
90 0.000045449679832
91 -0.000224458672471
92 0.000500402168283
93 0.0
94 0.0
95 0.000265705987983
96 0.000224458672471
97 -0.000500402168283
98 0.0
99 0.0
100 0.000265705987983
101 0.000004487608688
102 0.000321481627049
103 0.0
104 -0.000035998542079
105 0.000003176799447
106 -0.000004487608688
107 -0.000321481627049
108 0.0
109 0.000035998542079
110 0.000003176799447
111 -0.000004487608688
112 -0.000321481627049
113 0.0
114 -0.000035998542079
115 0.000003176799447
116 0.000004487608688
117 0.000321481627049
118 0.0
119 0.000035998542079
120 0.000003176799447
 Sym=      1.3
 Ene=     -11.2542
 Spin= Alpha
 Occup=    2.000000
1 0.0
2 0.0
3 0.0
4 0.0
5 0.000088750968744
6 0.0
7 0.0
8 -0.001432226242867
9 0.0
10 0.0
11 0.0
12 0.0
13 0.0
14 0.0
15 -0.000069437420137
16 0.0
17 0.0
18 0.0
19 0.0
20 0.000088750968744
21 0.0
22 0.0
23 -0.001432226242867
24 0.0
25 0.0
26 0.0
27 0.0
28 0.0
29 0.0
30 0.000069437420137
31 0.50098845091074
32 0.002177392535764
33 -0.003959105630684
34 0.0
35 0.000074642501933
36 0.000021469648818
37 0.0
38 -0.000708038444508
39 -0.000432643356463
40 -0.000052549857361
41 0.000069211095934
42 -0.000016661238573
43 0.0
44 0.0
45 -0.000036844197484
46 0.50098845091074
47 0.002177392535764
48 -0.003959105630684
49 0.0
50 0.000074642501933
51 -0.000021469648818
52 0.0
53 -0.000708038444508
54 0.000432643356463
55 -0.000052549857361
56 0.000069211095934
57 -0.000016661238573
58 0.0
59 0.0
60 0.000036844197484
61 -0.50098845091074
62 -0.002177392535764
63 0.003959105630684
64 0.0
65 0.000074642501933
66 0.000021469648818
67 0.0
68 -0.000708038444508
69 -0.000432643356463
70 0.000052549857361
71 -0.000069211095934
72 0.000016661238573
73 0.0
74 0.0
75 0.000036844197484
76 -0.50098845091074
77 -0.002177392535764
78 0.003959105630684
79 0.0
80 0.000074642501933
81 -0.000021469648818
82 0.0
83 -0.000708038444508
84 0.000432643356463
85 0.000052549857361
86 -0.000069211095934
87 0.000016661238573
88 0.0
89 0.0
90 -0.000036844197484
91 0.0
92 0.0
93 0.0
94 0.000016737944542
95 0.0
96 0.0
97 0.0
98 0.0
99 0.000016737944542
100 0.0
101 -0.000139228136545
102 0.000495964178720
103 0.0
104 -0.000156590464664
105 0.000100891370470
106 -0.000139228136545
107 0.000495964178720
108 0.0
109 -0.000156590464664
110 -0.000100891370470
111 0.000139228136545
112 -0.000495964178720
113 0.0
114 -0.000156590464664
115 0.000100891370470
116 0.000139228136545
117 -0.000495964178720
118 0.0
119 -0.000156590464664
120 -0.000100891370470
 Sym=      2.1
 Ene=     -11.2535
 Spin= Alpha
 Occup=    2.000000
1 0.44122047057679
2 0.001706505165227
3 -0.006113500533943
4 0.0
5 0.0
6 0.000247805264356
7 0.0
8 0.0
9 0.001782905725366
10 -0.000436055978414
11 0.000217852448948
12 0.000218203529466
13 0.0
14 0.0
15 0.0
16 0.44122047057679
17 0.001706505165227
18 -0.006113500533943
19 0.0
20 0.0
21 -0.000247805264356
22 0.0
23 0.0
24 -0.001782905725366
25 -0.000436055978414
26 0.000217852448948
27 0.000218203529466
28 0.0
29 0.0
30 0.0
31 -0.39224700627074
32 -0.001561710556710
33 0.003842486786049
34 0.0
35 -0.000669694813118
36 -0.000247181749743
37 0.0
38 0.000738416616068
39 0.000068310572952
40 0.000259229904166
41 -0.000280019970439
42 0.000020790066273
43 0.0
44 0.0
45 -0.000043121808977
46 -0.39224700627074
47 -0.001561710556710
48 0.003842486786049
49 0.0
50 -0.000669694813118
51 0.000247181749743
52 0.0
53 0.000738416616068
54 -0.000068310572952
55 0.000259229904166
56 -0.000280019970439
57 0.000020790066273
58 0.0
59 0.0
60 0.000043121808977
61 -0.39224700627074
62 -0.001561710556710
63 0.003842486786049
64 0.0
65 0.000669694813118
66 0.000247181749743
67 0.0
68 -0.000738416616068
69 -0.000068310572952
70 0.000259229904166
71 -0.000280019970439
72 0.000020790066273
73 0.0
74 0.0
75 -0.000043121808977
76 -0.39224700627074
77 -0.001561710556710
78 0.003842486786049
79 0.0
80 0.000669694813118
81 -0.000247181749743
82 0.0
83 -0.000738416616068
84 0.000068310572952
85 0.000259229904166
86 -0.000280019970439
87 0.000020790066273
88 0.0
89 0.0
90 0.000043121808977
91 -0.000263119325990
92 0.000060932077379
93 0.0
94 0.0
95 0.000312609893116
96 -0.000263119325990
97 0.000060932077379
98 0.0
99 0.0
100 -0.000312609893116
101 0.000596876702170
102 -0.000204837527016
103 0.0
104 0.000202630515427
105 -0.000141731413724
106 0.000596876702170
107 -0.000204837527016
108 0.0
109 0.000202630515427
110 0.000141731413724
111 0.000596876702170
112 -0.000204837527016
113 0.0
114 -0.000202630515427
115 0.000141731413724
116 0.000596876702170
117 -0.000204837527016
118 0.0
119 -0.000202630515427
120 -0.000141731413724
 Sym=      1.7
 Ene=     -11.2531
 Spin= Alpha
 Occup=    2.000000
1 0.0
2 0.0
3 0.0
4 0.0
5 0.000135591072628
6 0.0
7 0.0
8 -0.000679066086661
9 0.0
10 0.0
11 0.0
12 0.0
13 0.0
14 0.0
15 -0.000184810216818
16 0.0
17 0.0
18 0.0
19 0.0
20 -0.000135591072628
21 0.0
22 0.0
23 0.000679066086661
24 0.0
25 0.0
26 0.0
27 0.0
28 0.0
29 0.0
30 -0.000184810216818
31 0.50122721080630
32 0.002377549336848
33 -0.005738002495699
34 0.0
35 0.000011994165724
36 -0.000029535617551
37 0.0
38 -0.001101832365153
39 0.001014958969739
40 -0.000411737995784
41 0.000161914892419
42 0.000249823103365
43 0.0
44 0.0
45 -0.000068173217427
46 -0.50122721080630
47 -0.002377549336848
48 0.005738002495699
49 0.0
50 -0.000011994165724
51 -0.000029535617551
52 0.0
53 0.001101832365153
54 0.001014958969739
55 0.000411737995784
56 -0.000161914892419
57 -0.000249823103365
58 0.0
59 0.0
60 -0.000068173217427
61 0.50122721080630
62 0.002377549336848
63 -0.005738002495699
64 0.0
65 -0.000011994165724
66 0.000029535617551
67 0.0
68 0.001101832365153
69 -0.001014958969739
70 -0.000411737995784
71 0.000161914892419
72 0.000249823103365
73 0.0
74 0.0
75 -0.000068173217427
76 -0.50122721080630
77 -0.002377549336848
78 0.005738002495699
79 0.0
80 0.000011994165724
81 0.000029535617551
82 0.0
83 -0.001101832365153
84 -0.001014958969739
85 0.000411737995784
86 -0.000161914892419
87 -0.000249823103365
88 0.0
89 0.0
90 -0.000068173217427
91 0.0
92 0.0
93 0.0
94 0.000020690620542
95 0.0
96 0.0
97 0.0
98 0.0
99 -0.000020690620542
100 0.0
101 -0.000264843649913
102 0.000192172914346
103 0.0
104 -0.000271301076873
105 0.000149623848532
106 0.000264843649913
107 -0.000192172914346
108 0.0
109 0.000271301076873
110 0.000149623848532
111 -0.000264843649913
112 0.000192172914346
113 0.0
114 0.000271301076873
115 -0.000149623848532
116 0.000264843649913
117 -0.000192172914346
118 0.0
119 -0.000271301076873
120 -0.000149623848532
 Sym=      2.5
 Ene=     -11.2528
 Spin= Alpha
 Occup=    2.000000
1 -0.26337502227553
2 -0.001495079420366
3 0.006381344912684
4 0.0
5 0.0
6 0.000069988611626
7 0.0
8 0.0
9 -0.002543533964968
10 0.000523214048079
11 -0.000230456139376
12 -0.000292757908703
13 0.0
14 0.0
15 0.0
16 0.26337502227553
17 0.001495079420366
18 -0.006381344912684
19 0.0
20 0.0
21 0.000069988611626
22 0.0
23 0.0
24 -0.002543533964968
25 -0.000523214048079
26 0.000230456139376
27 0.000292757908703
28 0.0
29 0.0
30 0.0
31 0.46552160180503
32 0.002376452814315
33 -0.007998017377710
34 0.0
35 0.000076243161590
36 -0.000016530316467
37 0.0
38 -0.002208389684853
39 0.001613633626343
40 -0.000535635041288
41 0.000292304289244
42 0.000243330752045
43 0.0
44 0.0
45 -0.000061321017389
46 -0.46552160180503
47 -0.002376452814315
48 0.007998017377710
49 0.0
50 -0.000076243161590
51 -0.000016530316467
52 0.0
53 0.002208389684853
54 0.001613633626343
55 0.000535635041288
56 -0.000292304289244
57 -0.000243330752045
58 0.0
59 0.0
60 -0.000061321017389
61 -0.46552160180503
62 -0.002376452814315
63 0.007998017377710
64 0.0
65 0.000076243161590
66 -0.000016530316467
67 0.0
68 -0.002208389684853
69 0.001613633626343
70 0.000535635041288
71 -0.000292304289244
72 -0.000243330752045
73 0.0
74 0.0
75 0.000061321017389
76 0.46552160180503
77 0.002376452814315
78 -0.007998017377710
79 0.0
80 -0.000076243161590
81 -0.000016530316467
82 0.0
83 0.002208389684853
84 0.001613633626343
85 -0.000535635041288
86 0.000292304289244
87 0.000243330752045
88 0.0
89 0.0
90 0.000061321017389
91 0.000291418650600
92 0.000325558462617
93 0.0
94 0.0
95 -0.000239354875739
96 -0.000291418650600
97 -0.000325558462617
98 0.0
99 0.0
100 -0.000239354875739
101 -0.000364796676762
102 -0.000130244434256
103 0.0
104 -0.000280124803128
105 0.000159134401912
106 0.000364796676762
107 0.000130244434256
108 0.0
109 0.000280124803128
110 0.000159134401912
111 0.000364796676762
112 0.000130244434256
113 0.0