[Molden Format]
[Molpro variables]
_NUMVAR=  808.0000000000000    
_AVOGAD= 0.6022136736000000E+24
_BOLTZ= 0.1380658000000000E-22
_CLIGHT=  29979245800.00000    
_EV2006= 0.3674930886769165E-01
_EV= 0.3674932534394180E-01
_ENULL= 0.8854187817000000E-11
_KJOULE= 0.3808798324128737E-03
_KJOULE/MOL= 0.3808798324128737E-03
_CM= 0.4556335267302901E-05
_CM-1= 0.4556335267302901E-05
_DEB2SI= 0.3335641000000000E-29
_AMU2AU=  1822.888390000000    
_KCAL= 0.1593601117815568E-02
_KCAL/MOL= 0.1593601117815568E-02
_KELVIN2006= 0.3166828861084835E-05
_KELVIN= 0.3166814820820034E-05
_JOULE= 0.4359748200000000E-17
_HERTZ2006= 0.1519829850815779E-15
_HERTZ= 0.1519829846011223E-15
_HZ2006= 0.1519829850815779E-15
_HZ= 0.1519829846011223E-15
_JPCAL=  4.184000000000000    
_PLANCK= 0.6626075540000000E-33
_TOA2006= 0.5291772490000000    
_TOA= 0.5291772090000000    
_TOANG2006= 0.5291772490000000    
_TOANG= 0.5291772090000000    
_TORAD= 0.1745329251994330E-01
_TOCM=  219474.6306700000    
_TODEBYE=  2.541580000000000    
_TOEV2006=  27.21139610000000    
_TOE= 0.4803242000000000E-09
_TOEV=  27.21138390000000    
_TOHERTZ2006=  6579683899900000.    
_TOHERTZ=  6579683920700000.    
_TOHZ2006=  6579683899900000.    
_TOHZ=  6579683920700000.    
_TOK2006=  315773.3000000000    
_TOK=  315774.7000000000    
_TOKCAL=  627.5096000000000    
_TOKELVIN2006=  315773.3000000000    
_TOKELVIN=  315774.7000000000    
_TOKJ=  2625.500000000000    
_TOKJOULE=  2625.500000000000    
_TOKG= 0.1660565586000000E-26
_ANG2006=  1.889725988578923    
_ANG=  1.889726131421507    
_ANGSTROM2006=  1.889725988578923    
_ANGSTROM=  1.889726131421507    
_RPAREF=  0.000000000000000    
_RPADISS=  0.000000000000000    
_IGNORE_UNDEF=  2.000000000000000    
_STRICTCHECK=  0.000000000000000    
_SEW_ONEEL=  0.000000000000000    
_CPPDONE=FALSE
_DKROLL_DONE=  0.000000000000000    
_FOCKDONE=TRUE
_GRADONE=FALSE
_HESSDONE=FALSE
_INTDONE=TRUE
_SCFDONE=TRUE
_MODUL_BLOCK=FALSE
_MODUL_CUDA=FALSE
_MODUL_SLATER=FALSE
_MODUL_MRCC=FALSE
_MODUL_NBO6=FALSE
_MODUL_NECI=TRUE
_MODUL_AIMS=TRUE
_MRCC_EXEC=
_FITC_AO_SAVED=FALSE
_FITC_MO_SAVED=FALSE
_SHARED_FS=TRUE
_LSTYP=SEWARD
_INTYP=INTS
_GEOMTYP=ZMAT
_GRADTYP=ALASKA
_DIRECT=FALSE
_DKHO= -1.000000000000000    
_SYNCM=  0.000000000000000    
_BASIS=USERDEF
_ZORIENT=  1.000000000000000    
_NELEC=  58.00000000000000    
!SPIN=  0.000000000000000    
_QSDSTEP=  0.000000000000000    
_QSDIRC=  0.000000000000000    
_PROGRAM=HF-SCF
_CPUSTEP=  4.859999999999999    
_SYSSTEP= 0.2200000000000000    
_WALLSTEP=  2.490000000000000    
!DFSCF=  0.000000000000000    
!SCSGRD=  0.000000000000000    
_BASINP=  610.0000000000000    
_CPUTOT=  9.320000000000000    
_CPUSORT= 0.6000000000000001    
_SYSSORT= 0.2900000000000000    
_WALLSORT= 0.9400000013411045    
_DFTEXFAC=  1.000000000000000    
_DMX=  0.000000000000000    
_DMY= -1.075299248127586    
_DMZ= 0.7004600211734964    
_DMX_SCF=  0.000000000000000    
_DMY_SCF= -1.075299248127586    
_DMZ_SCF= 0.7004600211734964    
_EHOMO=-0.3229767027581733    
_ELUMO= 0.1116440973141388    
_ENERGY= -412.1165968362050    
_ENUC=  360.8014524679945    
_EPS1= -20.66490048554704    
_EPS2=-0.7354072348354741    
_GRADEXFAC=  9999.000000000000    
_GRADMETHOD=  1.000000000000000    
_NMRMETHOD=  0.000000000000000    
!GRID_FREEZE= -1.000000000000000    
_ITERATIONS=  11.00000000000000    
_LASTNELEC=  58.00000000000000    
_LASTSPIN=  0.000000000000000    
_LASTSYM=  1.000000000000000    
_MPP_PROG=  0.000000000000000    
_NPROC_MPP=  1.000000000000000    
_NPROC_MPPX=  1.000000000000000    
_NPROC_SMP=  16.00000000000000    
_NUMSTEP=  0.000000000000000    
_ORBITAL=  2100.200000000000    
_PI=  3.141592653589793    
_SEIG_MIN= 0.1419611248759524E-02
_SEWPROP=TRUE
_STATUS=  1.000000000000000    
_SYSTOT= 0.6000000000000000    
_VERSION=  2012001.000000000    
_WALLTOT=  8.720000000000001    
_DATE=24-Jan-19
_LASTORB=RHF
_MACHINE=Linux-4.9.0-8-amd64/nympha18.meta.zcu.cz(x86_64) (16 PROC) 64 bit serial version
_OUTPUT=/auto/brno2/home/masiz4am/git/UKRmol-in/tests/suite/Cs_scattering_SEP/molpro.xml
_PGROUP=Cs
_TIME=16:40:40
_LIBMOL=/afs/ics.muni.cz/software/molpro-2012.1/molprop_2012_1_Linux_x86_64_i8/lib/
!VIBCNT=  0.000000000000000    
!RGHFCNT=  0.000000000000000    
!SURFREC=  0.000000000000000    
!POLYREC=  0.000000000000000    
!DIPREC=  0.000000000000000    
!VSCFREC=  0.000000000000000    
!VCIREC=  0.000000000000000    
!PVCIREC=  0.000000000000000    
!VMP2REC=  0.000000000000000    
!VMCSCFREC=  0.000000000000000    
!VMRCIREC=  0.000000000000000    
!VIBINFO=  0.000000000000000    
!GAREC=  0.000000000000000    
!SCFORB=  21002.00000000000    
!NEWMOL= -1.000000000000000    
!NEWSYM= -1.000000000000000    
_SLFILES=slscratch
_NGSSTO=  9.000000000000000    
_SIN=SIN
_COS=COS
_TAN=TAN
_ACOS=ACOS
_ASIN=ASIN
_ATAN=ATAN
_COSH=COSH
_SINH=SINH
_TANH=TANH
_ABS=ABS
_MOD=MOD
_ERF=ERF
_REFC=REFC
_ERFC=ERFC
_HYPOT=HYPOT
_J0=J0
_J1=J1
_JN=JN
_GAMMA=GAMMA
_LGAMMA=LGAMMA
_Y0=Y0
_Y1=Y1
_YN=YN
_EXP=EXP
_LOG=LOG
_LOG10=LOG10
_SQRT=SQRT
_INT=INT
_NINT=NINT
_MAX=MAX
_MIN=MIN
_COSMO=  0.000000000000000    
_COSMOIT=  0.000000000000000    
_COSMOES=  0.000000000000000    
_COSMOEDS=  0.000000000000000    
_COSMOEC=  0.000000000000000    
_COSMOEDCORR=  0.000000000000000    
_FEPSI=  1.000000000000000    
_SL_IsMM=  0.000000000000000    
_SL_NSYM=  2.000000000000000    
_SL_System_BitSw=  0.000000000000000    
_SL_Unique_atoms=  0.000000000000000    
_SL_GRAD=  0.000000000000000    
_SL_MAXUPD_Hess=  5.000000000000000    
_SL_N_PRINT_COD=  5.000000000000000    
_SL_PRINT_CODES=  0.000000000000000    
_SL_BasType=  0.000000000000000    
_SL_Energy_Pred=  0.000000000000000    
_SL_New_Coords=  0.000000000000000    
_SL_Total_Nuclea=  0.000000000000000    
_SL_Highest_Mltp=  0.000000000000000    
_SL_Ref_Geom=  0.000000000000000    
_SL_Symmetry_ope=  1.000000000000000    
_SL_agrad=  0.000000000000000    
_SL_GrdMax=  0.000000000000000    
_SL_GrdNorm=  0.000000000000000    
_SL_GrdRMS=  0.000000000000000    
!LATTICE= -1.000000000000000    
!NEWLATTICE=  0.000000000000000    
!LATGRAD_VAR=FALSE
!SEW_LATTICE=  1.000000000000000    
!LOCAL=  0.000000000000000    
!SAVEDOM= -1.000000000000000    
!RESTDOM= -1.000000000000000    
!SAVEDOM_HF= -1.000000000000000    
!RESTDOM_HF= -1.000000000000000    
!HESSREC=  0.000000000000000    
!FREQREC=  0.000000000000000    
!NMODREC=  0.000000000000000    
!GTASKS=  0.000000000000000    
!HTASKS=  0.000000000000000    
!THRCHG= 0.1000000000000000    
!DEBUG= -1.000000000000000    
!CFIT_CPHF=  0.000000000000000    
!RDOMAUX_CPHF=  3.000000000000000    
!THRAO_CPHF= 0.1000000000000000E-09
!THRMO_CPHF= 0.1000000000000000E-08
!THROV_CPHF= 0.1000000000000000E-11
!THRSW_CPHF= 0.1000000000000000E-09
!THRPROD_CPHF= 0.1000000000000000E-08
!THRAOPR_CPHF= 0.1000000000000000E-11
!CFIT_SCFGRD=  0.000000000000000    
!RDOMAUX_SCFGRD=  5.000000000000000    
!THRAO_SCFGRD= 0.1000000000000000E-09
!THRMO_SCFGRD= 0.1000000000000000E-08
!THROV_SCFGRD= 0.1000000000000000E-11
!THRSW_SCFGRD= 0.1000000000000000E-09
!THRPROD_SCFGRD= 0.1000000000000000E-08
!THRAOPR_SCFGRD= 0.1000000000000000E-11
!LOCFIT_SCF=  0.000000000000000    
!LOCFIT_MP2= -1.000000000000000    
_RIDOM=  0.000000000000000    
!CC2_METHOD=  0.000000000000000    
_BASIS2006=FALSE
_SVDDEL= -1.000000000000000    
_SVDDELA= -1.000000000000000    
_SVDDELP= -1.000000000000000    
_SVDDELF= -1.000000000000000    
_SVDDELS= -1.000000000000000    
_SVDDEL_ABS= -1.000000000000000    
_SVDDELA_ABS= -1.000000000000000    
_SVDDELP_ABS= -1.000000000000000    
_SVDDELF_ABS= -1.000000000000000    
_SVDDELS_ABS= -1.000000000000000    
_MAXBASIS=  0.000000000000000    
!OPT_CONICAL=  0.000000000000000    
!CLEARSP_JGRID=  0.000000000000000    
_4EXT_NDISKS=  1.000000000000000    
!ZMP=  0.000000000000000    
_MAXIT_ZMP=  500.0000000000000    
_MAXDIS_ZMP=  100.0000000000000    
_ACCU_ZMP=  14.00000000000000    
_SHIFTA_ZMP= -100.0000000000000    
!EMBEDFLAG=  1.000000000000000    
!EMBED=FALSE
!EMBED_F12=FALSE
!EMBEDNUC=  0.000000000000000    
_EMBEDENERGY=  0.000000000000000    
_KSPACETIME=  0.000000000000000    
_RSPACETIME=  0.000000000000000    
!EMBED_DFC=FALSE
!NUM_VOIDS=  0.000000000000000    
_IBODY=  0.000000000000000    
_EMBE_TOTAL=  0.000000000000000    
_EMBE_HF=  0.000000000000000    
_EMBE_CORR=  0.000000000000000    
!EDFT=  0.000000000000000    
_IFASTLATGRAD=  0.000000000000000    
_SINDEX=  0.000000000000000    
GX1=  0.000000000000000    
GY1=  2.390300000000000    
GZ1= 0.7342000000000000    
GX2=  0.000000000000000    
GY2=  2.328300000000000    
GZ2= -2.003500000000000    
GX3=  0.000000000000000    
GY3=  0.000000000000000    
GZ3=  1.878600000000000    
GX4=  0.000000000000000    
GY4= 0.1009000000000000    
GZ4= -3.216300000000000    
GX5=  0.000000000000000    
GY5=  4.309300000000000    
GZ5=  2.017300000000000    
GX6=  0.000000000000000    
GY6= -2.151500000000000    
GZ6= -1.929400000000000    
GX7=  0.000000000000000    
GY7= -2.309400000000000    
GZ7= 0.6820000000000001    
GX8=  0.000000000000000    
GY8= -4.331100000000000    
GZ8=  1.789900000000000    
GX9=  0.000000000000000    
GY9=  4.109200000000000    
GZ9= -2.981200000000000    
GX10=  0.000000000000000    
GY10=-0.7290000000000001E-01
GZ10=  3.780800000000000    
GX11=  0.000000000000000    
GY11=-0.4140000000000000E-01
GZ11= -5.251700000000000    
GX12=  0.000000000000000    
GY12= -3.821000000000000    
GZ12=  2.829700000000000    
[Atoms] Angs
C     1    6         0.0000000000        1.2648922827        0.3885219068
C     2    6         0.0000000000        1.2320832957       -1.0602065382
N     3    7         0.0000000000        0.0000000000        0.9941123048
C     4    6         0.0000000000        0.0533939804       -1.7019926573
O     5    8         0.0000000000        2.2803833467        1.0675091837
N     6    7         0.0000000000       -1.1385247652       -1.0209945070
C     7    6         0.0000000000       -1.2220818465        0.3608988565
O     8    8         0.0000000000       -2.2919194099        0.9471742864
H     9    1         0.0000000000        2.1744949872       -1.5775830955
H    10    1         0.0000000000       -0.0385770185        2.0007131918
H    11    1         0.0000000000       -0.0219079365       -2.7790799485
H    12    1         0.0000000000       -2.0219861156        1.4974127483
[GTO]
  1 0
 s    8  1.00
  0.6665000000D+04  0.6915839628D-03
  0.1000000000D+04  0.5325796153D-02
  0.2280000000D+03  0.2706072104D-01
  0.6471000000D+02  0.1016568461D+00
  0.2106000000D+02  0.2745748236D+00
  0.7495000000D+01  0.4482943189D+00
  0.2797000000D+01  0.2849026107D+00
  0.5215000000D+00  0.1519485921D-01
 s    8  1.00
  0.6665000000D+04 -0.2932696527D-03
  0.1000000000D+04 -0.2318035474D-02
  0.2280000000D+03 -0.1149978604D-01
  0.6471000000D+02 -0.4682672701D-01
  0.2106000000D+02 -0.1284661688D+00
  0.7495000000D+01 -0.3012662725D+00
  0.2797000000D+01 -0.2556307023D+00
  0.5215000000D+00  0.1093793361D+01
 s    1  1.00
  0.1596000000D+00  0.1000000000D+01
 p    3  1.00
  0.9439000000D+01  0.5697925159D-01
  0.2002000000D+01  0.3132072115D+00
  0.5456000000D+00  0.7603767417D+00
 p    1  1.00
  0.1517000000D+00  0.1000000000D+01
 d    1  1.00
  0.5500000000D+00  0.1000000000D+01
  
  2 0
 s    8  1.00
  0.6665000000D+04  0.6915839628D-03
  0.1000000000D+04  0.5325796153D-02
  0.2280000000D+03  0.2706072104D-01
  0.6471000000D+02  0.1016568461D+00
  0.2106000000D+02  0.2745748236D+00
  0.7495000000D+01  0.4482943189D+00
  0.2797000000D+01  0.2849026107D+00
  0.5215000000D+00  0.1519485921D-01
 s    8  1.00
  0.6665000000D+04 -0.2932696527D-03
  0.1000000000D+04 -0.2318035474D-02
  0.2280000000D+03 -0.1149978604D-01
  0.6471000000D+02 -0.4682672701D-01
  0.2106000000D+02 -0.1284661688D+00
  0.7495000000D+01 -0.3012662725D+00
  0.2797000000D+01 -0.2556307023D+00
  0.5215000000D+00  0.1093793361D+01
 s    1  1.00
  0.1596000000D+00  0.1000000000D+01
 p    3  1.00
  0.9439000000D+01  0.5697925159D-01
  0.2002000000D+01  0.3132072115D+00
  0.5456000000D+00  0.7603767417D+00
 p    1  1.00
  0.1517000000D+00  0.1000000000D+01
 d    1  1.00
  0.5500000000D+00  0.1000000000D+01
  
  3 0
 s    8  1.00
  0.9046000000D+04  0.6996174134D-03
  0.1357000000D+04  0.5386054630D-02
  0.3093000000D+03  0.2739102119D-01
  0.8773000000D+02  0.1031505920D+00
  0.2856000000D+02  0.2785706633D+00
  0.1021000000D+02  0.4482948495D+00
  0.3838000000D+01  0.2780859284D+00
  0.7466000000D+00  0.1543156123D-01
 s    8  1.00
  0.9046000000D+04 -0.3049900960D-03
  0.1357000000D+04 -0.2408026379D-02
  0.3093000000D+03 -0.1194444873D-01
  0.8773000000D+02 -0.4892599291D-01
  0.2856000000D+02 -0.1344727247D+00
  0.1021000000D+02 -0.3151125777D+00
  0.3838000000D+01 -0.2428578325D+00
  0.7466000000D+00  0.1094382207D+01
 s    1  1.00
  0.2248000000D+00  0.1000000000D+01
 p    3  1.00
  0.1355000000D+02  0.5890567677D-01
  0.2917000000D+01  0.3204611067D+00
  0.7973000000D+00  0.7530420618D+00
 p    1  1.00
  0.2185000000D+00  0.1000000000D+01
 d    1  1.00
  0.8170000000D+00  0.1000000000D+01
  
  4 0
 s    8  1.00
  0.6665000000D+04  0.6915839628D-03
  0.1000000000D+04  0.5325796153D-02
  0.2280000000D+03  0.2706072104D-01
  0.6471000000D+02  0.1016568461D+00
  0.2106000000D+02  0.2745748236D+00
  0.7495000000D+01  0.4482943189D+00
  0.2797000000D+01  0.2849026107D+00
  0.5215000000D+00  0.1519485921D-01
 s    8  1.00
  0.6665000000D+04 -0.2932696527D-03
  0.1000000000D+04 -0.2318035474D-02
  0.2280000000D+03 -0.1149978604D-01
  0.6471000000D+02 -0.4682672701D-01
  0.2106000000D+02 -0.1284661688D+00
  0.7495000000D+01 -0.3012662725D+00
  0.2797000000D+01 -0.2556307023D+00
  0.5215000000D+00  0.1093793361D+01
 s    1  1.00
  0.1596000000D+00  0.1000000000D+01
 p    3  1.00
  0.9439000000D+01  0.5697925159D-01
  0.2002000000D+01  0.3132072115D+00
  0.5456000000D+00  0.7603767417D+00
 p    1  1.00
  0.1517000000D+00  0.1000000000D+01
 d    1  1.00
  0.5500000000D+00  0.1000000000D+01
  
  5 0
 s    8  1.00
  0.1172000000D+05  0.7096459465D-03
  0.1759000000D+04  0.5467272292D-02
  0.4008000000D+03  0.2782311861D-01
  0.1137000000D+03  0.1047477397D+00
  0.3703000000D+02  0.2829208464D+00
  0.1327000000D+02  0.4484952387D+00
  0.5025000000D+01  0.2708168852D+00
  0.1013000000D+01  0.1545029161D-01
 s    8  1.00
  0.1172000000D+05 -0.3144434117D-03
  0.1759000000D+04 -0.2482137681D-02
  0.4008000000D+03 -0.1231635538D-01
  0.1137000000D+03 -0.5053891734D-01
  0.3703000000D+02 -0.1393849033D+00
  0.1327000000D+02 -0.3250774948D+00
  0.5025000000D+01 -0.2298483076D+00
  0.1013000000D+01  0.1095379347D+01
 s    1  1.00
  0.3023000000D+00  0.1000000000D+01
 p    3  1.00
  0.1770000000D+02  0.6267916628D-01
  0.3854000000D+01  0.3335365659D+00
  0.1046000000D+01  0.7412396416D+00
 p    1  1.00
  0.2753000000D+00  0.1000000000D+01
 d    1  1.00
  0.1185000000D+01  0.1000000000D+01
  
  6 0
 s    8  1.00
  0.9046000000D+04  0.6996174134D-03
  0.1357000000D+04  0.5386054630D-02
  0.3093000000D+03  0.2739102119D-01
  0.8773000000D+02  0.1031505920D+00
  0.2856000000D+02  0.2785706633D+00
  0.1021000000D+02  0.4482948495D+00
  0.3838000000D+01  0.2780859284D+00
  0.7466000000D+00  0.1543156123D-01
 s    8  1.00
  0.9046000000D+04 -0.3049900960D-03
  0.1357000000D+04 -0.2408026379D-02
  0.3093000000D+03 -0.1194444873D-01
  0.8773000000D+02 -0.4892599291D-01
  0.2856000000D+02 -0.1344727247D+00
  0.1021000000D+02 -0.3151125777D+00
  0.3838000000D+01 -0.2428578325D+00
  0.7466000000D+00  0.1094382207D+01
 s    1  1.00
  0.2248000000D+00  0.1000000000D+01
 p    3  1.00
  0.1355000000D+02  0.5890567677D-01
  0.2917000000D+01  0.3204611067D+00
  0.7973000000D+00  0.7530420618D+00
 p    1  1.00
  0.2185000000D+00  0.1000000000D+01
 d    1  1.00
  0.8170000000D+00  0.1000000000D+01
  
  7 0
 s    8  1.00
  0.6665000000D+04  0.6915839628D-03
  0.1000000000D+04  0.5325796153D-02
  0.2280000000D+03  0.2706072104D-01
  0.6471000000D+02  0.1016568461D+00
  0.2106000000D+02  0.2745748236D+00
  0.7495000000D+01  0.4482943189D+00
  0.2797000000D+01  0.2849026107D+00
  0.5215000000D+00  0.1519485921D-01
 s    8  1.00
  0.6665000000D+04 -0.2932696527D-03
  0.1000000000D+04 -0.2318035474D-02
  0.2280000000D+03 -0.1149978604D-01
  0.6471000000D+02 -0.4682672701D-01
  0.2106000000D+02 -0.1284661688D+00
  0.7495000000D+01 -0.3012662725D+00
  0.2797000000D+01 -0.2556307023D+00
  0.5215000000D+00  0.1093793361D+01
 s    1  1.00
  0.1596000000D+00  0.1000000000D+01
 p    3  1.00
  0.9439000000D+01  0.5697925159D-01
  0.2002000000D+01  0.3132072115D+00
  0.5456000000D+00  0.7603767417D+00
 p    1  1.00
  0.1517000000D+00  0.1000000000D+01
 d    1  1.00
  0.5500000000D+00  0.1000000000D+01
  
  8 0
 s    8  1.00
  0.1172000000D+05  0.7096459465D-03
  0.1759000000D+04  0.5467272292D-02
  0.4008000000D+03  0.2782311861D-01
  0.1137000000D+03  0.1047477397D+00
  0.3703000000D+02  0.2829208464D+00
  0.1327000000D+02  0.4484952387D+00
  0.5025000000D+01  0.2708168852D+00
  0.1013000000D+01  0.1545029161D-01
 s    8  1.00
  0.1172000000D+05 -0.3144434117D-03
  0.1759000000D+04 -0.2482137681D-02
  0.4008000000D+03 -0.1231635538D-01
  0.1137000000D+03 -0.5053891734D-01
  0.3703000000D+02 -0.1393849033D+00
  0.1327000000D+02 -0.3250774948D+00
  0.5025000000D+01 -0.2298483076D+00
  0.1013000000D+01  0.1095379347D+01
 s    1  1.00
  0.3023000000D+00  0.1000000000D+01
 p    3  1.00
  0.1770000000D+02  0.6267916628D-01
  0.3854000000D+01  0.3335365659D+00
  0.1046000000D+01  0.7412396416D+00
 p    1  1.00
  0.2753000000D+00  0.1000000000D+01
 d    1  1.00
  0.1185000000D+01  0.1000000000D+01
  
  9 0
 s    3  1.00
  0.1301000000D+02  0.3349872639D-01
  0.1962000000D+01  0.2348008012D+00
  0.4446000000D+00  0.8136829579D+00
 s    1  1.00
  0.1220000000D+00  0.1000000000D+01
 p    1  1.00
  0.7270000000D+00  0.1000000000D+01
  
 10 0
 s    3  1.00
  0.1301000000D+02  0.3349872639D-01
  0.1962000000D+01  0.2348008012D+00
  0.4446000000D+00  0.8136829579D+00
 s    1  1.00
  0.1220000000D+00  0.1000000000D+01
 p    1  1.00
  0.7270000000D+00  0.1000000000D+01
  
 11 0
 s    3  1.00
  0.1301000000D+02  0.3349872639D-01
  0.1962000000D+01  0.2348008012D+00
  0.4446000000D+00  0.8136829579D+00
 s    1  1.00
  0.1220000000D+00  0.1000000000D+01
 p    1  1.00
  0.7270000000D+00  0.1000000000D+01
  
 12 0
 s    3  1.00
  0.1301000000D+02  0.3349872639D-01
  0.1962000000D+01  0.2348008012D+00
  0.4446000000D+00  0.8136829579D+00
 s    1  1.00
  0.1220000000D+00  0.1000000000D+01
 p    1  1.00
  0.7270000000D+00  0.1000000000D+01
 
 
[MO]
 Sym=      1.1
 Ene=     -20.6649
 Spin= Alpha
 Occup=    2.000000
1 -0.000102232092707
2 -0.000190318149098
3 -0.000056202801236
4 0.0
5 0.000069264122928
6 -0.000014592122782
7 0.0
8 -0.000198258282429
9 0.000102229363639
10 -0.000021211180273
11 -0.000027871692012
12 0.000049082872285
13 0.0
14 0.0
15 -0.000067748615557
16 -0.000051764965580
17 -0.000100412105010
18 -0.000072863574253
19 0.0
20 0.000032184841888
21 -0.000003176557111
22 0.0
23 0.000060855338310
24 0.000083024931881
25 -0.000005975351398
26 -0.000000603612260
27 0.000006578963657
28 0.0
29 0.0
30 0.000001011227279
31 -0.000087454748721
32 -0.000174144256100
33 0.000611340529919
34 0.0
35 0.000055142521340
36 0.000067071832543
37 0.0
38 0.000157808828092
39 -0.000933805528621
40 -0.000028451186153
41 -0.000149146910122
42 0.000177598096275
43 0.0
44 0.0
45 0.000055423906817
46 -0.000127543834424
47 -0.000230350265457
48 0.000328408671555
49 0.0
50 0.000038305825649
51 -0.000064558525052
52 0.0
53 -0.000020632635666
54 0.000537753559836
55 -0.000055802502734
56 0.000072079336200
57 -0.000016276833466
58 0.0
59 0.0
60 -0.000002997066364
61 -0.000009053300751
62 -0.000012877436449
63 0.000113262850077
64 0.0
65 -0.000013559691057
66 -0.000006612783010
67 0.0
68 0.000004735828966
69 -0.000059426533395
70 -0.000002047249141
71 -0.000004058361700
72 0.000006105610841
73 0.0
74 0.0
75 0.000015092300526
76 -0.000118687842095
77 -0.000235301543954
78 0.000773506227637
79 0.0
80 0.000006513447345
81 -0.000062441975466
82 0.0
83 0.000526775304160
84 0.000227560968570
85 -0.000013960686812
86 0.000048870720182
87 -0.000034910033370
88 0.0
89 0.0
90 0.000174977544937
91 0.000270466129640
92 0.000420647765365
93 0.001638542562835
94 0.0
95 -0.000116888812781
96 0.000090829220712
97 0.0
98 -0.002979926984411
99 0.001997936260558
100 0.000112294359342
101 -0.000361462516054
102 0.000249168156713
103 0.0
104 0.0
105 0.000370769080923
106 1.00287253993611
107 0.005449522392400
108 -0.004569488350872
109 0.0
110 0.002980395092837
111 0.002289751071911
112 0.0
113 -0.001339768222539
114 0.001444773198400
115 -0.000525684521617
116 -0.000142148753593
117 0.000667833275210
118 0.0
119 0.0
120 0.000766849899318
121 0.000006352799855
122 0.000051296111922
123 0.0
124 -0.000015523904277
125 0.000004840395159
126 0.000126911691526
127 0.000115659539081
128 0.0
129 0.000026336387898
130 0.000056909293749
131 0.000062327123948
132 0.000260295698923
133 0.0
134 0.000021885179367
135 0.000013533810761
136 -0.004382338330732
137 -0.000536763004975
138 0.0
139 0.000843036105219
140 0.002166353298038
 Sym=      2.1
 Ene=     -20.5266
 Spin= Alpha
 Occup=    2.000000
1 0.000317333535923
2 0.000441776963108
3 0.000978863527168
4 0.0
5 -0.000032812012730
6 -0.000066761792633
7 0.0
8 0.003624295992277
9 0.001817137538260
10 0.000242715295211
11 -0.000357377017614
12 0.000114661722402
13 0.0
14 0.0
15 -0.000661185409100
16 -0.000083982950947
17 -0.000152268226436
18 0.001847455646382
19 0.0
20 0.000071195178450
21 -0.000043839320496
22 0.0
23 -0.001864827062469
24 -0.000057053998392
25 -0.000119170992697
26 0.000194540823502
27 -0.000075369830805
28 0.0
29 0.0
30 -0.000437606224791
31 -0.000132304066548
32 -0.000257961904180
33 0.001061176343945
34 0.0
35 -0.000097168022491
36 0.000078921749238
37 0.0
38 0.000224100510382
39 -0.000856396117570
40 -0.000035402668623
41 -0.000175709750109
42 0.000211112418732
43 0.0
44 0.0
45 -0.000056451284124
46 -0.000007185337472
47 -0.000014266684525
48 -0.001288144630331
49 0.0
50 -0.000008748267785
51 -0.000032414394326
52 0.0
53 -0.000554103901425
54 0.000072144801117
55 -0.000033130888299
56 0.000167939535279
57 -0.000134808646980
58 0.0
59 0.0
60 -0.000044121797335
61 1.00140087761582
62 0.002054297616739
63 -0.006836172352592
64 0.0
65 -0.001528176603275
66 -0.000933789371124
67 0.0
68 0.001425741233781
69 0.000997016083661
70 -0.000177286642214
71 0.000109487047977
72 0.000067799594238
73 0.0
74 0.0
75 0.000057252930376
76 0.000004832408568
77 0.000000828273745
78 -0.000293430352471
79 0.0
80 -0.000008621453284
81 -0.000015837084150
82 0.0
83 -0.000135121844783
84 0.000060724657446
85 0.000019387837921
86 0.000010468710640
87 -0.000029856548561
88 0.0
89 0.0
90 0.000042191266204
91 -0.000117709582156
92 -0.000214436026189
93 0.000110225280529
94 0.0
95 -0.000048311212541
96 -0.000006034072850
97 0.0
98 0.000475880727664
99 -0.000014936056029
100 -0.000039664768362
101 -0.000065272701246
102 0.000104937469608
103 0.0
104 0.0
105 0.000083699577312
106 -0.000007397715870
107 -0.000015565121923
108 0.000165420908493
109 0.0
110 0.000016455879140
111 -0.000000990694332
112 0.0
113 0.000045235137318
114 -0.000175113812859
115 0.000002357905978
116 0.000008030966487
117 -0.000010388872465
118 0.0
119 0.0
120 -0.000026739415978
121 -0.000127487171712
122 0.000389716485694
123 0.0
124 0.000189364636870
125 -0.000057200029965
126 0.000054986675485
127 0.000021245845161
128 0.0
129 -0.000059618475022
130 0.000087456824255
131 0.000167078598004
132 0.000121987746131
133 0.0
134 0.000009820677023
135 0.000053009303483
136 0.000043776537948
137 0.000192146388611
138 0.0
139 -0.000013605176614
140 0.000012159075666
 Sym=      3.1
 Ene=     -15.6581
 Spin= Alpha
 Occup=    2.000000
1 0.000050321076484
2 0.000019190755926
3 0.002326353465464
4 0.0
5 -0.000118141927684
6 0.000042510735999
7 0.0
8 -0.002950620878599
9 0.001003741811224
10 0.000007303702880
11 -0.000009767349066
12 0.000002463646185
13 0.0
14 0.0
15 0.000230073996166
16 0.000001570223403
17 -0.000005500492010
18 -0.001374646012447
19 0.0
20 0.000002713720622
21 -0.000083693804371
22 0.0
23 0.002140833886292
24 0.000698224258968
25 -0.000052551584832
26 0.000045307579350
27 0.000007244005482
28 0.0
29 0.0
30 0.000052705374163
31 1.00200907432336
32 0.003671854753960
33 -0.009989593002225
34 0.0
35 -0.000370354701660
36 0.000044283616248
37 0.0
38 0.000000916127070
39 0.001836261285383
40 -0.000110638651339
41 -0.000077095774669
42 0.000187734426008
43 0.0
44 0.0
45 0.000010825518650
46 -0.000054322839636
47 -0.000089462616818
48 0.002613290335574
49 0.0
50 -0.000028440853151
51 -0.000005426233047
52 0.0
53 0.000741122448704
54 0.000619014054403
55 -0.000081948139544
56 0.000017930107803
57 0.000064018031741
58 0.0
59 0.0
60 0.000005332937284
61 -0.000079980520748
62 -0.000168819599557
63 0.000447525474360
64 0.0
65 0.000022199151442
66 0.000049852468213
67 0.0
68 0.000385790936472
69 -0.000368465072081
70 0.000001033561609
71 -0.000062686113807
72 0.000061652552198
73 0.0
74 0.0
75 -0.000017826769404
76 -0.000170079907670
77 -0.000078857890717
78 -0.000237192663250
79 0.0
80 0.000022414501664
81 -0.000087281878294
82 0.0
83 -0.000780808865750
84 0.000109460458587
85 -0.000041067793367
86 0.000037860011131
87 0.000003207782236
88 0.0
89 0.0
90 -0.000064944802738
91 0.000093992845338
92 0.000066336973095
93 0.002504209246646
94 0.0
95 0.000084479055523
96 0.000069378401605
97 0.0
98 0.002218138083481
99 0.001017133905309
100 0.000081870159296
101 -0.000136347311555
102 0.000054477152260
103 0.0
104 0.0
105 -0.000382653880274
106 -0.000032358980642
107 -0.000090818782694
108 -0.000065229452512
109 0.0
110 -0.000056148894677
111 0.000036711467875
112 0.0
113 -0.000430228519526
114 -0.000582756144454
115 0.000025063359877
116 -0.000075226369279
117 0.000050163009403
118 0.0
119 0.0
120 -0.000044735227800
121 -0.000161186304579
122 -0.000354093277728
123 0.0
124 -0.000062291090702
125 -0.000046755867474
126 -0.000194096110228
127 -0.000063772720667
128 0.0
129 -0.000014372234293
130 0.000588900534632
131 -0.000119809450849
132 0.000093158634867
133 0.0
134 -0.000037817814302
135 -0.000039908218206
136 0.000239600787224
137 0.000109961358116
138 0.0
139 -0.000012574631486
140 0.000048574348551
 Sym=      4.1
 Ene=     -15.5530
 Spin= Alpha
 Occup=    2.000000
1 -0.000042744698891
2 -0.000081429722249
3 0.001999395123156
4 0.0
5 -0.000007852286003
6 0.000049378447463
7 0.0
8 -0.000049956173184
9 -0.001021230336598
10 -0.000040851473160
11 0.000010382591803
12 0.000030468881356
13 0.0
14 0.0
15 0.000032611988009
16 0.000041449073728
17 0.000056935732988
18 -0.002871041750581
19 0.0
20 0.000150340501750
21 0.000029179485238
22 0.0
23 0.001220366086162
24 -0.001568054806771
25 -0.000039301958405
26 -0.000143586211508
27 0.000182888169913
28 0.0
29 0.0
30 0.000016013644934
31 0.000055907326999
32 -0.000165626756469
33 -0.000085838357481
34 0.0
35 0.000112342942754
36 0.000058736821167
37 0.0
38 -0.000431353444757
39 0.000674581567604
40 -0.000099355413967
41 0.000064602793361
42 0.000034752620606
43 0.0
44 0.0
45 -0.000089184040605
46 0.000104360399433
47 0.000077486531219
48 0.003472833698485
49 0.0
50 -0.000017944768206
51 -0.000018961474860
52 0.0
53 -0.000718992530219
54 0.002613807777588
55 0.000066809065361
56 -0.000394452785268
57 0.000327643719906
58 0.0
59 0.0
60 0.000438172829703
61 -0.000005279335348
62 -0.000012156872583
63 -0.000066529254513
64 0.0
65 0.000024833135484
66 -0.000012374464757
67 0.0
68 -0.000024139329618
69 0.000178745481504
70 0.000001485032513
71 0.000003684881181
72 -0.000005169913693
73 0.0
74 0.0
75 -0.000014763937620
76 1.00188453901668
77 0.003181558307325
78 -0.010000128320609
79 0.0
80 0.001737429232346
81 0.001198821074815
82 0.0
83 -0.002281797863802
84 -0.001837235756249
85 -0.000158513152401
86 0.000046564973979
87 0.000111948178422
88 0.0
89 0.0
90 -0.000113618279042
91 0.000166768650012
92 0.000158885277396
93 0.002279483693901
94 0.0
95 0.000059536569104
96 -0.000106578582517
97 0.0
98 0.000982776010653
99 -0.003028553171910
100 0.000212881335979
101 0.000335394503188
102 -0.000548275839167
103 0.0
104 0.0
105 0.000004064761076
106 -0.000067988241986
107 -0.000145920101374
108 0.000664800659741
109 0.0
110 -0.000106106378223
111 0.000084995687977
112 0.0
113 0.000286969653225
114 0.000449447293963
115 -0.000025914755215
116 0.000011536176784
117 0.000014378578431
118 0.0
119 0.0
120 0.000040145862660
121 -0.000054261899499
122 -0.000483611053221
123 0.0
124 -0.000001643229869
125 0.000090925191555
126 -0.000156377244963
127 0.000105313217505
128 0.0
129 -0.000000438775608
130 -0.000003750028200
131 -0.000112876667899
132 0.000646789955806
133 0.0
134 0.000155209507936
135 -0.000186759084065
136 -0.000063988263680
137 0.000510365888823
138 0.0
139 0.000268345862110
140 -0.000065449806442
 Sym=      5.1
 Ene=     -11.4462
 Spin= Alpha
 Occup=    2.000000
1 -0.000369345272772
2 -0.000399822579808
3 0.002509820692753
4 0.0
5 0.000051796435939
6 -0.000008645575546
7 0.0
8 -0.000963546327627
9 -0.002472780747854
10 -0.000157557067518
11 0.000270127384720
12 -0.000112570317202
13 0.0
14 0.0
15 0.000158673660254
16 0.000150208306412
17 0.000303158217383
18 -0.005012132877853
19 0.0
20 0.000019468178233
21 -0.000007462946068
22 0.0
23 0.001791776983080
24 -0.001416568283066
25 0.000087867020389
26 -0.000100084868314
27 0.000012217847925
28 0.0
29 0.0
30 0.000093021248931
31 0.000111002679677
32 0.000603586380722
33 -0.002961037447005
34 0.0
35 -0.000248105519839
36 -0.000156296170561
37 0.0
38 0.002409866422699
39 0.001100701969691
40 0.000370567864808
41 -0.000171434899051
42 -0.000199132965757
43 0.0
44 0.0
45 -0.000084645223435
46 -0.000185165662684
47 -0.000217305323945
48 0.003130679234625
49 0.0
50 -0.000027765278323
51 -0.000026575868743
52 0.0
53 0.000503391973449
54 0.002538948680751
55 -0.000180405809689
56 -0.000054547711663