[Molden Format]
[Atoms] (AU)
H    1    1         0.000000000000       0.000000000000      -0.699198666419
H    2    1         0.000000000000       0.000000000000       0.699198666419
H    3    1         3.000000000000       0.000000000000       0.00
[GTO]
  1 0
 s    3  1.00
       13.0100000000         0.0196850000
        1.9620000000         0.1379770000
        0.4446000000         0.4781480000
 s    1  1.00
        0.1220000000         1.0000000000
 p    1  1.00
        0.7270000000         1.0000000000

  2 0
 s    3  1.00
       13.0100000000         0.0196850000
        1.9620000000         0.1379770000
        0.4446000000         0.4781480000
 s    1  1.00
        0.1220000000         1.0000000000
 p    1  1.00
        0.7270000000         1.0000000000

[5D]
[9G]

[MO]
 Sym= Ag
 Ene= -5.92411479533985541e-01
 Spin= Alpha
 Occup=  2.00000000000000000e+00
  1  4.03665463998525487e-01
  2  1.73762042447653642e-01
  3  0.00000000000000000e+00
  4  0.00000000000000000e+00
  5  2.24977767643222207e-02
  6  4.03665463998525487e-01
  7  1.73762042447653642e-01
  8  0.00000000000000000e+00
  9  0.00000000000000000e+00
 10 -2.24977767643222207e-02
 Sym= B1u
 Ene=  1.97387876644464666e-01
 Spin= Alpha
 Occup=  0.00000000000000000e+00
  1  1.50201044436646808e-01
  2  1.95876868502829105e+00
  3  0.00000000000000000e+00
  4  0.00000000000000000e+00
  5  1.42894173081494075e-02
  6 -1.50201044436646808e-01
  7 -1.95876868502829105e+00
  8  0.00000000000000000e+00
  9  0.00000000000000000e+00
 10  1.42894173081494075e-02
 Sym= Ag
 Ene=  4.79314069774136486e-01
 Spin= Alpha
 Occup=  0.00000000000000000e+00
  1  7.00113820762850225e-01
  2 -7.26376337980637943e-01
  3  0.00000000000000000e+00
  4  0.00000000000000000e+00
  5  1.12553713527750576e-02
  6  7.00113820762850225e-01
  7 -7.26376337980637943e-01
  8  0.00000000000000000e+00
  9  0.00000000000000000e+00
 10 -1.12553713527750576e-02
 Sym= B1u
 Ene=  9.37282711613391939e-01
 Spin= Alpha
 Occup=  0.00000000000000000e+00
  1  7.60685201735031624e-01
  2 -1.61720683252753705e+00
  3  0.00000000000000000e+00
  4  0.00000000000000000e+00
  5 -4.10216819549355127e-01
  6 -7.60685201735031624e-01
  7  1.61720683252753705e+00
  8  0.00000000000000000e+00
  9  0.00000000000000000e+00
 10 -4.10216819549355127e-01
 Sym= B2u
 Ene=  1.29293691733837512e+00
 Spin= Alpha
 Occup=  0.00000000000000000e+00
  1  0.00000000000000000e+00
  2  0.00000000000000000e+00
  3  0.00000000000000000e+00
  4  5.79044245232393728e-01
  5  0.00000000000000000e+00
  6  0.00000000000000000e+00
  7  0.00000000000000000e+00
  8  0.00000000000000000e+00
  9  5.79044245232393728e-01
 10  0.00000000000000000e+00
 Sym= B3u
 Ene=  1.29293691733837646e+00
 Spin= Alpha
 Occup=  0.00000000000000000e+00
  1  0.00000000000000000e+00
  2  0.00000000000000000e+00
  3  5.79044245232393728e-01
  4  0.00000000000000000e+00
  5  0.00000000000000000e+00
  6  0.00000000000000000e+00
  7  0.00000000000000000e+00
  8  5.79044245232393728e-01
  9  0.00000000000000000e+00
 10  0.00000000000000000e+00
 Sym= Ag
 Ene=  1.95706044680554569e+00
 Spin= Alpha
 Occup=  0.00000000000000000e+00
  1  4.43717742391139536e-01
  2 -2.21053703962281994e-01
  3  0.00000000000000000e+00
  4  0.00000000000000000e+00
  5 -7.26901493100981955e-01
  6  4.43717742391139536e-01
  7 -2.21053703962281994e-01
  8  0.00000000000000000e+00
  9  0.00000000000000000e+00
 10  7.26901493100981955e-01
 Sym= B3g
 Ene=  2.04354072860633718e+00
 Spin= Alpha
 Occup=  0.00000000000000000e+00
  1  0.00000000000000000e+00
  2  0.00000000000000000e+00
  3  0.00000000000000000e+00
  4  9.91349973302817267e-01
  5  0.00000000000000000e+00
  6  0.00000000000000000e+00
  7  0.00000000000000000e+00
  8  0.00000000000000000e+00
  9 -9.91349973302817267e-01
 10  0.00000000000000000e+00
 Sym= B2g
 Ene=  2.04354072860634339e+00
 Spin= Alpha
 Occup=  0.00000000000000000e+00
  1  0.00000000000000000e+00
  2  0.00000000000000000e+00
  3  9.91349973302817267e-01
  4  0.00000000000000000e+00
  5  0.00000000000000000e+00
  6  0.00000000000000000e+00
  7  0.00000000000000000e+00
  8 -9.91349973302817267e-01
  9  0.00000000000000000e+00
 10  0.00000000000000000e+00
 Sym= B1u
 Ene=  3.61050570933881820e+00
 Spin= Alpha
 Occup=  0.00000000000000000e+00
  1  2.68617926379441885e+00
  2  5.05775009234902262e-02
  3  0.00000000000000000e+00
  4  0.00000000000000000e+00
  5  2.02675349382142223e+00
  6 -2.68617926379441885e+00
  7 -5.05775009234902262e-02
  8  0.00000000000000000e+00
  9  0.00000000000000000e+00
 10  2.02675349382142223e+00
