[Molden Format]
[Molpro variables]
_NUMVAR=  784.0000000000000    
_AVOGAD= 0.6022136736000000E+24
_BOLTZ= 0.1380658000000000E-22
_CLIGHT=  29979245800.00000    
_EV2006= 0.3674930886769165E-01
_EV= 0.3674932534394180E-01
_ENULL= 0.8854187817000000E-11
_KJOULE= 0.3808798324128737E-03
_KJOULE/MOL= 0.3808798324128737E-03
_CM= 0.4556335267302901E-05
_CM-1= 0.4556335267302901E-05
_DEB2SI= 0.3335641000000000E-29
_AMU2AU=  1822.888390000000    
_KCAL= 0.1593601117815568E-02
_KCAL/MOL= 0.1593601117815568E-02
_KELVIN2006= 0.3166828861084835E-05
_KELVIN= 0.3166814820820034E-05
_JOULE= 0.4359748200000000E-17
_HERTZ2006= 0.1519829850815779E-15
_HERTZ= 0.1519829846011223E-15
_HZ2006= 0.1519829850815779E-15
_HZ= 0.1519829846011223E-15
_JPCAL=  4.184000000000000    
_PLANCK= 0.6626075540000000E-33
_TOA2006= 0.5291772490000000    
_TOA= 0.5291772090000000    
_TOANG2006= 0.5291772490000000    
_TOANG= 0.5291772090000000    
_TORAD= 0.1745329251994330E-01
_TOCM=  219474.6306700000    
_TODEBYE=  2.541580000000000    
_TOEV2006=  27.21139610000000    
_TOE= 0.4803242000000000E-09
_TOEV=  27.21138390000000    
_TOHERTZ2006=  6579683899900000.    
_TOHERTZ=  6579683920700000.    
_TOHZ2006=  6579683899900000.    
_TOHZ=  6579683920700000.    
_TOK2006=  315773.3000000000    
_TOK=  315774.7000000000    
_TOKCAL=  627.5096000000000    
_TOKELVIN2006=  315773.3000000000    
_TOKELVIN=  315774.7000000000    
_TOKJ=  2625.500000000000    
_TOKJOULE=  2625.500000000000    
_TOKG= 0.1660565586000000E-26
_ANG2006=  1.889725988578923    
_ANG=  1.889726131421507    
_ANGSTROM2006=  1.889725988578923    
_ANGSTROM=  1.889726131421507    
_RPAREF=  0.000000000000000    
_RPADISS=  0.000000000000000    
_IGNORE_UNDEF=  2.000000000000000    
_STRICTCHECK=  0.000000000000000    
_SEW_ONEEL=  0.000000000000000    
_CPPDONE=FALSE
_DKROLL_DONE=  0.000000000000000    
_FOCKDONE=TRUE
_GRADONE=FALSE
_HESSDONE=FALSE
_INTDONE=TRUE
_SCFDONE=TRUE
_MODUL_BLOCK=FALSE
_MODUL_CUDA=FALSE
_MODUL_SLATER=FALSE
_MODUL_MRCC=FALSE
_MODUL_NBO6=FALSE
_MODUL_NECI=TRUE
_MODUL_AIMS=TRUE
_MRCC_EXEC=
_FITC_AO_SAVED=FALSE
_FITC_MO_SAVED=FALSE
_SHARED_FS=TRUE
_LSTYP=SEWARD
_INTYP=INTS
_GEOMTYP=ZMAT
_GRADTYP=ALASKA
_DIRECT=FALSE
_DKHO= -1.000000000000000    
_SYNCM=  0.000000000000000    
_BASIS=USERDEF
_ZORIENT=  1.000000000000000    
_NELEC=  16.00000000000000    
!SPIN=  0.000000000000000    
_QSDSTEP=  0.000000000000000    
_QSDIRC=  0.000000000000000    
_PROGRAM=HF-SCF
_CPUSTEP= 0.4999999999999999E-01
_SYSSTEP=  0.000000000000000    
_WALLSTEP= 0.3800000000000000    
!DFSCF=  0.000000000000000    
!SCSGRD=  0.000000000000000    
_BASINP=  610.0000000000000    
_CPUTOT= 0.3600000000000000    
_CPUSORT= 0.3999999999999998E-01
_SYSSORT= 0.6000000000000000E-01
_WALLSORT= 0.1500000022351742    
_DFTEXFAC=  1.000000000000000    
_DMX=  0.000000000000000    
_DMY=  0.000000000000000    
_DMZ=  0.000000000000000    
_DMX_SCF=  0.000000000000000    
_DMY_SCF=  0.000000000000000    
_DMZ_SCF=  0.000000000000000    
_EHOMO=-0.3931176384557705    
_ELUMO= 0.1507684619250808    
_ENERGY= -110.0085066036313    
_ENUC=  32.90960542492468    
_EPS1= -15.62284562330121    
_EPS2=-0.5199415207201080    
_EPS3= -15.62132769571345    
_EPS4= 0.1507684619250808    
_GRADEXFAC=  9999.000000000000    
_GRADMETHOD=  1.000000000000000    
_NMRMETHOD=  0.000000000000000    
!GRID_FREEZE= -1.000000000000000    
_ITERATIONS=  9.000000000000000    
_LASTNELEC=  16.00000000000000    
_LASTSPIN=  0.000000000000000    
_LASTSYM=  1.000000000000000    
_MPP_PROG=  0.000000000000000    
_NPROC_MPP=  1.000000000000000    
_NPROC_MPPX=  1.000000000000000    
_NPROC_SMP=  16.00000000000000    
_NUMSTEP=  0.000000000000000    
_ORBITAL=  2100.200000000000    
_PI=  3.141592653589793    
_SEIG_MIN= 0.7442282617842458E-02
_SEWPROP=TRUE
_STATUS=  1.000000000000000    
_SYSTOT= 0.1100000000000000    
_VERSION=  2012001.000000000    
_WALLTOT=  2.190000000000000    
_DATE=24-Jan-19
_LASTORB=RHF
_MACHINE=Linux-4.9.0-8-amd64/nympha18.meta.zcu.cz(x86_64) (16 PROC) 64 bit serial version
_OUTPUT=/auto/brno2/home/masiz4am/git/UKRmol-in/tests/suite/C2h_target_HF1/molpro.xml
_PGROUP=C2h
_TIME=16:17:38
_LIBMOL=/afs/ics.muni.cz/software/molpro-2012.1/molprop_2012_1_Linux_x86_64_i8/lib/
!VIBCNT=  0.000000000000000    
!RGHFCNT=  0.000000000000000    
!SURFREC=  0.000000000000000    
!POLYREC=  0.000000000000000    
!DIPREC=  0.000000000000000    
!VSCFREC=  0.000000000000000    
!VCIREC=  0.000000000000000    
!PVCIREC=  0.000000000000000    
!VMP2REC=  0.000000000000000    
!VMCSCFREC=  0.000000000000000    
!VMRCIREC=  0.000000000000000    
!VIBINFO=  0.000000000000000    
!GAREC=  0.000000000000000    
!SCFORB=  21002.00000000000    
!NEWMOL= -1.000000000000000    
!NEWSYM= -1.000000000000000    
_SLFILES=slscratch
_NGSSTO=  9.000000000000000    
_SIN=SIN
_COS=COS
_TAN=TAN
_ACOS=ACOS
_ASIN=ASIN
_ATAN=ATAN
_COSH=COSH
_SINH=SINH
_TANH=TANH
_ABS=ABS
_MOD=MOD
_ERF=ERF
_REFC=REFC
_ERFC=ERFC
_HYPOT=HYPOT
_J0=J0
_J1=J1
_JN=JN
_GAMMA=GAMMA
_LGAMMA=LGAMMA
_Y0=Y0
_Y1=Y1
_YN=YN
_EXP=EXP
_LOG=LOG
_LOG10=LOG10
_SQRT=SQRT
_INT=INT
_NINT=NINT
_MAX=MAX
_MIN=MIN
_COSMO=  0.000000000000000    
_COSMOIT=  0.000000000000000    
_COSMOES=  0.000000000000000    
_COSMOEDS=  0.000000000000000    
_COSMOEC=  0.000000000000000    
_COSMOEDCORR=  0.000000000000000    
_FEPSI=  1.000000000000000    
_SL_IsMM=  0.000000000000000    
_SL_NSYM=  4.000000000000000    
_SL_System_BitSw=  0.000000000000000    
_SL_Unique_atoms=  0.000000000000000    
_SL_GRAD=  0.000000000000000    
_SL_MAXUPD_Hess=  5.000000000000000    
_SL_N_PRINT_COD=  5.000000000000000    
_SL_PRINT_CODES=  0.000000000000000    
_SL_BasType=  0.000000000000000    
_SL_Energy_Pred=  0.000000000000000    
_SL_New_Coords=  0.000000000000000    
_SL_Total_Nuclea=  0.000000000000000    
_SL_Highest_Mltp=  0.000000000000000    
_SL_Ref_Geom=  0.000000000000000    
_SL_Symmetry_ope=  1.000000000000000    
_SL_agrad=  0.000000000000000    
_SL_GrdMax=  0.000000000000000    
_SL_GrdNorm=  0.000000000000000    
_SL_GrdRMS=  0.000000000000000    
!LATTICE= -1.000000000000000    
!NEWLATTICE=  0.000000000000000    
!LATGRAD_VAR=FALSE
!SEW_LATTICE=  1.000000000000000    
!LOCAL=  0.000000000000000    
!SAVEDOM= -1.000000000000000    
!RESTDOM= -1.000000000000000    
!SAVEDOM_HF= -1.000000000000000    
!RESTDOM_HF= -1.000000000000000    
!HESSREC=  0.000000000000000    
!FREQREC=  0.000000000000000    
!NMODREC=  0.000000000000000    
!GTASKS=  0.000000000000000    
!HTASKS=  0.000000000000000    
!THRCHG= 0.1000000000000000    
!DEBUG= -1.000000000000000    
!CFIT_CPHF=  0.000000000000000    
!RDOMAUX_CPHF=  3.000000000000000    
!THRAO_CPHF= 0.1000000000000000E-09
!THRMO_CPHF= 0.1000000000000000E-08
!THROV_CPHF= 0.1000000000000000E-11
!THRSW_CPHF= 0.1000000000000000E-09
!THRPROD_CPHF= 0.1000000000000000E-08
!THRAOPR_CPHF= 0.1000000000000000E-11
!CFIT_SCFGRD=  0.000000000000000    
!RDOMAUX_SCFGRD=  5.000000000000000    
!THRAO_SCFGRD= 0.1000000000000000E-09
!THRMO_SCFGRD= 0.1000000000000000E-08
!THROV_SCFGRD= 0.1000000000000000E-11
!THRSW_SCFGRD= 0.1000000000000000E-09
!THRPROD_SCFGRD= 0.1000000000000000E-08
!THRAOPR_SCFGRD= 0.1000000000000000E-11
!LOCFIT_SCF=  0.000000000000000    
!LOCFIT_MP2= -1.000000000000000    
_RIDOM=  0.000000000000000    
!CC2_METHOD=  0.000000000000000    
_BASIS2006=FALSE
_SVDDEL= -1.000000000000000    
_SVDDELA= -1.000000000000000    
_SVDDELP= -1.000000000000000    
_SVDDELF= -1.000000000000000    
_SVDDELS= -1.000000000000000    
_SVDDEL_ABS= -1.000000000000000    
_SVDDELA_ABS= -1.000000000000000    
_SVDDELP_ABS= -1.000000000000000    
_SVDDELF_ABS= -1.000000000000000    
_SVDDELS_ABS= -1.000000000000000    
_MAXBASIS=  0.000000000000000    
!OPT_CONICAL=  0.000000000000000    
!CLEARSP_JGRID=  0.000000000000000    
_4EXT_NDISKS=  1.000000000000000    
!ZMP=  0.000000000000000    
_MAXIT_ZMP=  500.0000000000000    
_MAXDIS_ZMP=  100.0000000000000    
_ACCU_ZMP=  14.00000000000000    
_SHIFTA_ZMP= -100.0000000000000    
!EMBEDFLAG=  1.000000000000000    
!EMBED=FALSE
!EMBED_F12=FALSE
!EMBEDNUC=  0.000000000000000    
_EMBEDENERGY=  0.000000000000000    
_KSPACETIME=  0.000000000000000    
_RSPACETIME=  0.000000000000000    
!EMBED_DFC=FALSE
!NUM_VOIDS=  0.000000000000000    
_IBODY=  0.000000000000000    
_EMBE_TOTAL=  0.000000000000000    
_EMBE_HF=  0.000000000000000    
_EMBE_CORR=  0.000000000000000    
!EDFT=  0.000000000000000    
_IFASTLATGRAD=  0.000000000000000    
_SINDEX=  0.000000000000000    
GX1=  0.000000000000000    
GY1=  0.000000000000000    
GZ1=  1.147819566000000    
GX2=  0.000000000000000    
GY2=  1.840404140000000    
GZ2=  1.722863184000000    
GX3=  0.000000000000000    
GY3=  0.000000000000000    
GZ3= -1.147819566000000    
GX4=  0.000000000000000    
GY4= -1.840404140000000    
GZ4= -1.722863184000000    
[Atoms] Angs
N     1    7         0.0000000000        0.0000000000        0.6073999544
H     2    1         0.0000000000        0.9738999262        0.9116999312
N     3    7         0.0000000000        0.0000000000       -0.6073999544
H     4    1         0.0000000000       -0.9738999262       -0.9116999312
[GTO]
  1 0
 s    8  1.00
  0.9046000000D+04  0.6996174134D-03
  0.1357000000D+04  0.5386054630D-02
  0.3093000000D+03  0.2739102119D-01
  0.8773000000D+02  0.1031505920D+00
  0.2856000000D+02  0.2785706633D+00
  0.1021000000D+02  0.4482948495D+00
  0.3838000000D+01  0.2780859284D+00
  0.7466000000D+00  0.1543156123D-01
 s    8  1.00
  0.9046000000D+04 -0.3049900960D-03
  0.1357000000D+04 -0.2408026379D-02
  0.3093000000D+03 -0.1194444873D-01
  0.8773000000D+02 -0.4892599291D-01
  0.2856000000D+02 -0.1344727247D+00
  0.1021000000D+02 -0.3151125777D+00
  0.3838000000D+01 -0.2428578325D+00
  0.7466000000D+00  0.1094382207D+01
 s    1  1.00
  0.2248000000D+00  0.1000000000D+01
 p    3  1.00
  0.1355000000D+02  0.5890567677D-01
  0.2917000000D+01  0.3204611067D+00
  0.7973000000D+00  0.7530420618D+00
 p    1  1.00
  0.2185000000D+00  0.1000000000D+01
 d    1  1.00
  0.8170000000D+00  0.1000000000D+01
  
  3 0
 s    8  1.00
  0.9046000000D+04  0.6996174134D-03
  0.1357000000D+04  0.5386054630D-02
  0.3093000000D+03  0.2739102119D-01
  0.8773000000D+02  0.1031505920D+00
  0.2856000000D+02  0.2785706633D+00
  0.1021000000D+02  0.4482948495D+00
  0.3838000000D+01  0.2780859284D+00
  0.7466000000D+00  0.1543156123D-01
 s    8  1.00
  0.9046000000D+04 -0.3049900960D-03
  0.1357000000D+04 -0.2408026379D-02
  0.3093000000D+03 -0.1194444873D-01
  0.8773000000D+02 -0.4892599291D-01
  0.2856000000D+02 -0.1344727247D+00
  0.1021000000D+02 -0.3151125777D+00
  0.3838000000D+01 -0.2428578325D+00
  0.7466000000D+00  0.1094382207D+01
 s    1  1.00
  0.2248000000D+00  0.1000000000D+01
 p    3  1.00
  0.1355000000D+02  0.5890567677D-01
  0.2917000000D+01  0.3204611067D+00
  0.7973000000D+00  0.7530420618D+00
 p    1  1.00
  0.2185000000D+00  0.1000000000D+01
 d    1  1.00
  0.8170000000D+00  0.1000000000D+01
  
  2 0
 s    3  1.00
  0.1301000000D+02  0.3349872639D-01
  0.1962000000D+01  0.2348008012D+00
  0.4446000000D+00  0.8136829579D+00
 s    1  1.00
  0.1220000000D+00  0.1000000000D+01
 p    1  1.00
  0.7270000000D+00  0.1000000000D+01
  
  4 0
 s    3  1.00
  0.1301000000D+02  0.3349872639D-01
  0.1962000000D+01  0.2348008012D+00
  0.4446000000D+00  0.8136829579D+00
 s    1  1.00
  0.1220000000D+00  0.1000000000D+01
 p    1  1.00
  0.7270000000D+00  0.1000000000D+01
 
 
[MO]
 Sym=      1.1
 Ene=     -15.6228
 Spin= Alpha
 Occup=    2.000000
1 0.70788102110764
2 0.001289612466518
3 -0.002482851546767
4 0.0
5 0.001282678061721
6 -0.000967051181343
7 0.0
8 -0.000790048966711
9 0.000502837269867
10 -0.000171975938439
11 0.000301596043270
12 -0.000129620104831
13 0.0
14 0.0
15 0.000070161825133
16 0.70788102110764
17 0.001289612466518
18 -0.002482851546767
19 0.0
20 -0.001282678061721
21 0.000967051181343
22 0.0
23 0.000790048966711
24 -0.000502837269867
25 -0.000171975938439
26 0.000301596043270
27 -0.000129620104831
28 0.0
29 0.0
30 0.000070161825133
31 -0.000189522861988
32 0.000791960209772
33 0.0
34 0.000562245409926
35 0.000101996536825
36 -0.000189522861988
37 0.000791960209772
38 0.0
39 -0.000562245409926
40 -0.000101996536825
 Sym=      1.3
 Ene=     -15.6213
 Spin= Alpha
 Occup=    2.000000
1 0.70814011970602
2 0.001560005407192
3 -0.003957350340946
4 0.0
5 0.001254622047948
6 -0.001415087917376
7 0.0
8 -0.000320841593903
9 0.001178486984504
10 -0.000739678002103
11 0.000066374673810
12 0.000673303328293
13 0.0
14 0.0
15 0.000114460797866
16 -0.70814011970602
17 -0.001560005407192
18 0.003957350340946
19 0.0
20 0.001254622047948
21 -0.001415087917376
22 0.0
23 -0.000320841593903
24 0.001178486984504
25 0.000739678002103
26 -0.000066374673810
27 -0.000673303328293
28 0.0
29 0.0
30 -0.000114460797866
31 -0.000263697576802
32 0.000292293581798
33 0.0
34 0.000679196181027
35 0.000174985045680
36 0.000263697576802
37 -0.000292293581798
38 0.0
39 0.000679196181027
40 0.000174985045680
 Sym=      2.1
 Ene=      -1.3706
 Spin= Alpha
 Occup=    2.000000
1 -0.007602026193697
2 0.32023289079293
3 0.21186737153119
4 0.0
5 0.023868960901576
6 -0.16692153017440
7 0.0
8 -0.008070565175866
9 -0.038080107929344
10 -0.011180031320387
11 -0.012627470259830
12 0.023807501580217
13 0.0
14 0.0
15 -0.002314556940413
16 -0.007602026193697
17 0.32023289079293
18 0.21186737153119
19 0.0
20 -0.023868960901576
21 0.16692153017440
22 0.0
23 0.008070565175866
24 0.038080107929344
25 -0.011180031320387
26 -0.012627470259830
27 0.023807501580217
28 0.0
29 0.0
30 -0.002314556940413
31 0.099416049576839
32 -0.005727197212764
33 0.0
34 -0.019512100217700
35 -0.007603863932007
36 0.099416049576839
37 -0.005727197212764
38 0.0
39 0.019512100217700
40 0.007603863932007
 Sym=      2.3
 Ene=      -0.9333
 Spin= Alpha
 Occup=    2.000000
1 -0.001354566100030
2 0.25873600443710
3 0.23735799984742
4 0.0
5 0.15601304924655
6 0.12996095811523
7 0.0
8 0.039983860095354
9 0.060696495505647
10 0.000202586554280
11 0.016456207517771
12 -0.016658794072051
13 0.0
14 0.0
15 -0.004016287731648
16 0.001354566100030
17 -0.25873600443710
18 -0.23735799984742
19 0.0
20 0.15601304924655
21 0.12996095811523
22 0.0
23 0.039983860095354
24 0.060696495505647
25 -0.000202586554280
26 -0.016456207517771
27 0.016658794072051
28 0.0
29 0.0
30 0.004016287731648
31 0.24966218213953
32 0.029542135167583
33 0.0
34 -0.032794196894549
35 -0.009953922151193
36 -0.24966218213953
37 -0.029542135167583
38 0.0
39 -0.032794196894549
40 -0.009953922151193
 Sym=      3.1
 Ene=      -0.6694
 Spin= Alpha
 Occup=    2.000000
1 -0.004919772315908
2 0.028381412618122
3 0.084569980883419
4 0.0
5 0.13000171489718
6 0.38631978513078
7 0.0
8 0.042435539796316
9 0.16922620129621
10 0.005430176162096
11 0.024948463805009
12 -0.030378639967105
13 0.0
14 0.0
15 0.016569905544776
16 -0.004919772315908
17 0.028381412618122
18 0.084569980883419
19 0.0
20 -0.13000171489718
21 -0.38631978513078
22 0.0
23 -0.042435539796316
24 -0.16922620129621
25 0.005430176162096
26 0.024948463805009
27 -0.030378639967105
28 0.0
29 0.0
30 0.016569905544776
31 0.24653567954480
32 0.081856892638629
33 0.0
34 -0.022642456260276
35 0.001660198659718
36 0.24653567954480
37 0.081856892638629
38 0.0
39 0.022642456260276
40 -0.001660198659718
 Sym=      3.3
 Ene=      -0.6451
 Spin= Alpha
 Occup=    2.000000
1 -0.003086170239422
2 -0.17916909216227
3 -0.25411118355896
4 0.0
5 0.33639147673688
6 -0.11296514485924
7 0.0
8 0.18990373698841
9 -0.091745863518297
10 -0.008413679121108
11 0.007934699802478
12 0.000478979318630
13 0.0
14 0.0
15 -0.024974062268570
16 0.003086170239422
17 0.17916909216227
18 0.25411118355896
19 0.0
20 0.33639147673688
21 -0.11296514485924
22 0.0
23 0.18990373698841
24 -0.091745863518297
25 0.008413679121108
26 -0.007934699802478
27 -0.000478979318630
28 0.0
29 0.0
30 0.024974062268570
31 0.11912213910424
32 0.027202658065302
33 0.0
34 -0.007343939204978
35 -0.010514513227221
36 -0.11912213910424
37 -0.027202658065302
38 0.0
39 -0.007343939204978
40 -0.010514513227221
 Sym=      1.2
 Ene=      -0.5199
 Spin= Alpha
 Occup=    2.000000
1 0.0
2 0.0
3 0.0
4 0.40077527835043
5 0.0
6 0.0
7 0.29309170005413
8 0.0
9 0.0
10 0.0
11 0.0
12 0.0
13 0.010098360267211
14 -0.042452238315561
15 0.0
16 0.0
17 0.0
18 0.0
19 0.40077527835043
20 0.0
21 0.0
22 0.29309170005413
23 0.0
24 0.0
25 0.0
26 0.0
27 0.0
28 -0.010098360267211
29 0.042452238315561
30 0.0
31 0.0
32 0.0
33 0.013264192480640
34 0.0
35 0.0
36 0.0
37 0.0
38 0.013264192480640
39 0.0
40 0.0
 Sym=      4.1
 Ene=      -0.3931
 Spin= Alpha
 Occup=    2.000000
1 0.008139966165161
2 -0.087364037709179
3 -0.29662375404959
4 0.0
5 0.35109957432143
6 -0.21576020430239
7 0.0
8 0.28785995181581
9 -0.15661078361937
10 -0.016838133973148
11 0.015890511185058
12 0.000947622788090
13 0.0
14 0.0
15 0.006941165226547
16 0.008139966165161
17 -0.087364037709179
18 -0.29662375404959
19 0.0
20 -0.35109957432143
21 0.21576020430239
22 0.0
23 -0.28785995181581
24 0.15661078361937
25 -0.016838133973148
26 0.015890511185058
27 0.000947622788090
28 0.0
29 0.0
30 0.006941165226547
31 0.23473893479071
32 0.063706295792015
33 0.0
34 -0.007927513583787
35 -0.011000514755199
36 0.23473893479071
37 0.063706295792015
38 0.0
39 0.007927513583787
40 0.011000514755199
 Sym=      1.4
 Ene=       0.1508
 Spin= Alpha
 Occup=    0.000000
1 0.0
2 0.0
3 0.0
4 0.41205024850472
5 0.0
6 0.0
7 0.61614521778726
8 0.0
9 0.0
10 0.0
11 0.0
12 0.0
13 0.013944856774209
14 0.012005591579857
15 0.0
16 0.0
17 0.0
18 0.0
19 -0.41205024850472
20 0.0
21 0.0
22 -0.61614521778726
23 0.0
24 0.0
25 0.0
26 0.0
27 0.0
28 0.013944856774209
29 0.012005591579857
30 0.0
31 0.0
32 0.0
33 0.024261819198158
34 0.0
35 0.0
36 0.0
37 0.0
38 -0.024261819198158
39 0.0
40 0.0
 Sym=      4.3
 Ene=       0.2091
 Spin= Alpha
 Occup=    0.000000
1 0.022638965780348
2 -0.057939696758585
3 -0.60456138707964
4 0.0
5 -0.16300901320196
6 -0.026573103733929
7 0.0
8 -0.40939299309061
9 -0.19131409511324
10 0.004636064358088
11 -0.023781157019035
12 0.019145092660947
13 0.0
14 0.0
15 0.006413932375581
16 -0.022638965780348
17 0.057939696758585
18 0.60456138707964
19 0.0
20 -0.16300901320196
21 -0.026573103733929
22 0.0
23 -0.40939299309061
24 -0.19131409511324
25 -0.004636064358088
26 0.023781157019035
27 -0.019145092660947
28 0.0
29 0.0
30 -0.006413932375581
31 0.074372563527580
32 1.26725287380995
33 0.0
34 -0.029644211529393
35 -0.001018613986038
36 -0.074372563527580
37 -1.26725287380995
38 0.0
39 -0.029644211529393
40 -0.001018613986038
 Sym=      5.1
 Ene=       0.2125
 Spin= Alpha
 Occup=    0.000000
1 0.031216494732179
2 -0.050415273248444
3 -0.77799562814123
4 0.0
5 -0.15375263450118
6 -0.087103585983571
7 0.0
8 -0.43712199322432
9 -0.18100133840459
10 0.010954085612895
11 -0.013966983932577
12 0.003012898319682
13 0.0
14 0.0
15 -0.009689224389648
16 0.031216494732179
17 -0.050415273248444
18 -0.77799562814123
19 0.0
20 0.15375263450118
21 0.087103585983571
22 0.0
23 0.43712199322432
24 0.18100133840459
25 0.010954085612895
26 -0.013966983932577
27 0.003012898319682
28 0.0
29 0.0
30 -0.009689224389648
31 0.011041283112339
32 1.13091260084886
33 0.0
34 -0.019369333084624
35 -0.012696913961748
36 0.011041283112339
37 1.13091260084886
38 0.0
39 0.019369333084624
40 0.012696913961748
 Sym=      5.3
 Ene=       0.5602
 Spin= Alpha
 Occup=    0.000000
1 0.051660510854152
2 -0.084986123553943
3 -2.58456423088693
4 0.0
5 0.13984841124274
6 0.21593262730903
7 0.0
8 0.057576613206624
9 2.08596545582346
10 0.030771402139449
11 -0.015661487891988
12 -0.015109914247461
13 0.0
14 0.0
15 -0.025210686835441
16 -0.051660510854152
17 0.084986123553943
18 2.58456423088693
19 0.0
20 0.13984841124274
21 0.21593262730903
22 0.0
23 0.057576613206624
24 2.08596545582346
25 -0.030771402139449
26 0.015661487891988
27 0.015109914247461
28 0.0
29 0.0
30 0.025210686835441
31 -0.17936275140910
32 -0.14462052951114
33 0.0
34 -0.045482612125563
35 -0.020347572134339
36 0.17936275140910
37 0.14462052951114
38 0.0
39 -0.045482612125563
40 -0.020347572134339
 Sym=      6.3
 Ene=       0.7856
 Spin= Alpha
 Occup=    0.000000
1 -0.043048237233523
2 -0.25019980193998
3 -0.65480699008662
4 0.0
5 -0.13929112037690
6 0.011400327525695
7 0.0
8 0.033983592776524
9 0.68721218422315
10 -0.072436805470447
11 0.10366038770406
12 -0.031223582233614
13 0.0
14 0.0
15 0.10828770608564
16 0.043048237233523
17 0.25019980193998
18 0.65480699008662
19 0.0
20 -0.13929112037690
21 0.011400327525695
22 0.0
23 0.033983592776524
24 0.68721218422315
25 0.072436805470447
26 -0.10366038770406
27 0.031223582233614
28 0.0
29 0.0
30 -0.10828770608564
31 0.78726622940416
32 -0.81094519573457
33 0.0
34 0.18393787905713
35 0.11850879544866
36 -0.78726622940416
37 0.81094519573457
38 0.0
39 0.18393787905713
40 0.11850879544866
 Sym=      6.1
 Ene=       0.7944
 Spin= Alpha
 Occup=    0.000000
1 -0.086599901282146
2 -0.20157682598960
3 -0.043712875788895
4 0.0
5 -0.12930545677745
6 0.31790976653692
7 0.0
8 -0.51395418553173
9 -0.62264832460782
10 -0.028338213195614
11 0.10128810055522
12 -0.072949887359602
13 0.0
14 0.0
15 0.011274601450405
16 -0.086599901282146
17 -0.20157682598960
18 -0.043712875788895
19 0.0
20 0.12930545677745
21 -0.31790976653692
22 0.0
23 0.51395418553173
24 0.62264832460782
25 -0.028338213195614
26 0.10128810055522
27 -0.072949887359602
28 0.0
29 0.0
30 0.011274601450405
31 0.65974912522268
32 -0.33495329250680
33 0.0
34 0.090366364272310
35 -0.064369696443471
36 0.65974912522268
37 -0.33495329250680
38 0.0
39 -0.090366364272310
40 0.064369696443471
 Sym=      7.1
 Ene=       0.8988
 Spin= Alpha
 Occup=    0.000000
1 -0.058770467643436
2 -0.11012549127928
3 -0.26851844238625
4 0.0
5 0.50108165007924
6 0.23631383958706
7 0.0
8 -0.61518386143153
9 -0.37154861011170
10 0.096359734547331
11 -0.078743058124067
12 -0.017616676423265
13 0.0
14 0.0
15 -0.007757193654121
16 -0.058770467643436
17 -0.11012549127928
18 -0.26851844238625
19 0.0
20 -0.50108165007924
21 -0.23631383958706
22 0.0
23 0.61518386143153
24 0.37154861011170
25 0.096359734547331
26 -0.078743058124067
27 -0.017616676423265
28 0.0
29 0.0
30 -0.007757193654121
31 -0.30737976563463
32 0.49460805863649
33 0.0
34 -0.22059809358104
35 -0.14008258535432
36 -0.30737976563463
37 0.49460805863649
38 0.0
39 0.22059809358104
40 0.14008258535432
 Sym=      2.2
 Ene=       0.9352
 Spin= Alpha
 Occup=    0.000000
1 0.0
2 0.0
3 0.0
4 -0.68507657741831
5 0.0
6 0.0
7 0.61364336068758
8 0.0
9 0.0
10 0.0
11 0.0
12 0.0
13 0.000491006867733
14 0.099637574608182
15 0.0
16 0.0
17 0.0
18 0.0
19 -0.68507657741831
20 0.0
21 0.0
22 0.61364336068758
23 0.0
24 0.0
25 0.0
26 0.0
27 0.0
28 -0.000491006867733
29 -0.099637574608182
30 0.0
31 0.0
32 0.0
33 0.007778370134515
34 0.0
35 0.0
36 0.0
37 0.0
38 0.007778370134515
39 0.0
40 0.0
 Sym=      7.3
 Ene=       0.9811
 Spin= Alpha
 Occup=    0.000000
1 0.011768060151757
2 0.030415711000718
3 0.77640555311987
4 0.0
5 -0.42903639006641
6 0.53442094154239
7 0.0
8 0.67378183343190
9 -0.58106309788876
10 -0.074060907928588
11 -0.052972156343391
12 0.12703306427198
13 0.0
14 0.0
15 0.072348436488492
16 -0.011768060151757
17 -0.030415711000718
18 -0.77640555311987
19 0.0
20 -0.42903639006641
21 0.53442094154239
22 0.0
23 0.67378183343190
24 -0.58106309788876
25 0.074060907928588
26 0.052972156343391
27 -0.12703306427198
28 0.0
29 0.0
30 -0.072348436488492
31 -0.24540802239395
32 -0.27763058191556
33 0.0
34 0.073272902087625
35 0.090606237563387
36 0.24540802239395
37 0.27763058191556
38 0.0
39 0.073272902087625
40 0.090606237563387
 Sym=      8.1
 Ene=       1.0182
 Spin= Alpha
 Occup=    0.000000
1 0.012656968248483
2 0.11553064468661
3 -0.093775905642702
4 0.0
5 -0.31379381770680
6 0.38138355503147
7 0.0
8 1.13422078141845
9 -0.50364550876600
10 0.10521751656577
11 -0.062749421536006
12 -0.042468095029764
13 0.0
14 0.0
15 -0.032109564021565
16 0.012656968248483
17 0.11553064468661
18 -0.093775905642702
19 0.0
20 0.31379381770680
21 -0.38138355503147
22 0.0
23 -1.13422078141845
24 0.50364550876600
25 0.10521751656577
26 -0.062749421536006
27 -0.042468095029764
28 0.0
29 0.0
30 -0.032109564021565
31 -0.59137146670322
32 0.18601730487937
33 0.0
34 -0.020989273016105
35 0.11761604983308
36 -0.59137146670322
37 0.18601730487937
38 0.0
39 0.020989273016105
40 -0.11761604983308
 Sym=      2.4
 Ene=       1.0639
 Spin= Alpha
 Occup=    0.000000
1 0.0
2 0.0
3 0.0
4 -0.73625499544740
5 0.0
6 0.0
7 1.08508677470553
8 0.0
9 0.0
10 0.0
11 0.0
12 0.0
13 -0.005681229955265
14 -0.034673522299091
15 0.0
16 0.0
17 0.0
18 0.0
19 0.73625499544740
20 0.0
21 0.0
22 -1.08508677470553
23 0.0
24 0.0
25 0.0
26 0.0
27 0.0
28 -0.005681229955265
29 -0.034673522299091
30 0.0
31 0.0
32 0.0
33 -0.029071647360653
34 0.0
35 0.0
36 0.0
37 0.0
38 0.029071647360653
39 0.0
40 0.0
 Sym=      8.3
 Ene=       1.1389
 Spin= Alpha
 Occup=    0.000000
1 -0.017494764381160
2 -0.000082330234666
3 -0.69598320164480
4 0.0
5 -0.41238767096765
6 -0.46659057451784
7 0.0
8 0.79776740894537
9 1.42100944575474
10 0.067795009244553
11 0.091475355021442
12 -0.15927036426600
13 0.0
14 0.0
15 -0.006620205748451
16 0.017494764381160
17 0.000082330234666
18 0.69598320164480
19 0.0
20 -0.41238767096765
21 -0.46659057451784
22 0.0
23 0.79776740894537
24 1.42100944575474
25 -0.067795009244553
26 -0.091475355021442
27 0.15927036426600
28 0.0
29 0.0
30 0.006620205748451
31 -0.30590521622854
32 -0.74358133235786
33 0.0
34 0.23569049050567
35 -0.13852621370941
36 0.30590521622854
37 0.74358133235786
38 0.0
39 0.23569049050567
40 -0.13852621370941
 Sym=      9.1
 Ene=       1.2833
 Spin= Alpha
 Occup=    0.000000
1 -0.50877290393185
2 -1.14123368649271
3 1.72325305221027
4 0.0
5 -0.017994545586457
6 -0.12485324493712
7 0.0
8 0.72299545387009
9 0.25651925526556
10 0.13450209993177
11 -0.012190651551901
12 -0.12231144837987
13 0.0
14 0.0
15 0.021284555970778
16 -0.50877290393185
17 -1.14123368649271
18 1.72325305221027
19 0.0
20 0.017994545586457
21 0.12485324493712
22 0.0
23 -0.72299545387009
24 -0.25651925526556
25 0.13450209993177
26 -0.012190651551901
27 -0.12231144837987
28 0.0
29 0.0
30 0.021284555970778
31 -0.34562851987114
32 -0.71611542346239
33 0.0
34 0.18164103056611
35 0.026815969262587
36 -0.34562851987114
37 -0.71611542346239
38 0.0
39 -0.18164103056611
40 -0.026815969262587
 Sym=      3.4
 Ene=       1.4175
 Spin= Alpha
 Occup=    0.000000
1 0.0
2 0.0
3 0.0
4 -0.057026216028951
5 0.0
6 0.0
7 -0.30227179953172
8 0.0
9 0.0
10 0.0
11 0.0
12 0.0
13 0.30542561922899
14 -0.005152272181826
15 0.0
16 0.0
17 0.0
18 0.0
19 0.057026216028951
20 0.0
21 0.0
22 0.30227179953172
23 0.0
24 0.0
25 0.0
26 0.0
27 0.0
28 0.30542561922899
29 -0.005152272181826
30 0.0
31 0.0
32 0.0
33 0.55506011492149
34 0.0
35 0.0
36 0.0
37 0.0
38 -0.55506011492149
39 0.0
40 0.0
 Sym=      9.3
 Ene=       1.4717
 Spin= Alpha
 Occup=    0.000000
1 0.27938400892013
2 0.64871450869202
3 -1.96505898513306
4 0.0
5 -0.071536065287217
6 -0.29995465528304
7 0.0
8 0.19335056533912
9 0.91534486253219
10 0.091637519651332
11 0.008344489598278
12 -0.099982009249610
13 0.0
14 0.0
15 0.24579788857808
16 -0.27938400892013
17 -0.64871450869202
18 1.96505898513306
19 0.0
20 -0.071536065287217
21 -0.29995465528304
22 0.0
23 0.19335056533912
24 0.91534486253219
25 -0.091637519651332
26 -0.008344489598278
27 0.099982009249610
28 0.0
29 0.0
30 -0.24579788857808
31 -0.051116543869125
32 -0.022697016590925
33 0.0
34 -0.24176155305863
35 0.35951476736806
36 0.051116543869125
37 0.022697016590925
38 0.0
39 -0.24176155305863
40 0.35951476736806
 Sym=      3.2
 Ene=       1.4966
 Spin= Alpha
 Occup=    0.000000
1 0.0
2 0.0
3 0.0
4 0.062463030639795
5 0.0
6 0.0
7 -0.20650853127150
8 0.0
9 0.0
10 0.0
11 0.0
12 0.0
13 0.16922694086013
14 0.14060496567279
15 0.0
16 0.0
17 0.0
18 0.0
19 0.062463030639795
20 0.0
21 0.0
22 -0.20650853127150
23 0.0
24 0.0
25 0.0
26 0.0
27 0.0
28 -0.16922694086013
29 -0.14060496567279
30 0.0
31 0.0
32 0.0
33 0.62707089447039
34 0.0
35 0.0
36 0.0
37 0.0
38 0.62707089447039
39 0.0
40 0.0
 Sym=     10.3
 Ene=       1.6753
 Spin= Alpha
 Occup=    0.000000
1 -0.58636185966129
2 -1.20069535242764
3 4.86651597507782
4 0.0
5 0.084497074366161
6 -0.096524736101616
7 0.0
8 0.44323594683644
9 -1.98538717057054
10 0.10983613462262
11 -0.16740823916579
12 0.057572104543175
13 0.0
14 0.0
15 0.13019409143261
16 0.58636185966129
17 1.20069535242764
18 -4.86651597507782
19 0.0
20 0.084497074366161
21 -0.096524736101616
22 0.0
23 0.44323594683644
24 -1.98538717057054
25 -0.10983613462262
26 0.16740823916579
27 -0.057572104543175
28 0.0
29 0.0
30 -0.13019409143261
31 -0.57886275699028
32 -0.24541724812366
33 0.0
34 0.073069720003052
35 0.36736796806474
36 0.57886275699028
37 0.24541724812366
38 0.0
39 0.073069720003052
40 0.36736796806474
 Sym=     10.1
 Ene=       1.8092
 Spin= Alpha
 Occup=    0.000000
1 -0.027779326910130
2 -0.075716615000499
3 -0.31566428768070
4 0.0
5 0.14198219963908
6 0.015501723018385
7 0.0
8 -0.76437904826776
9 -0.48635915603066
10 0.13841909702801
11 -0.076303615421333
12 -0.062115481606675
13 0.0
14 0.0
15 0.096239953022610
16 -0.027779326910130
17 -0.075716615000499
18 -0.31566428768070
19 0.0
20 -0.14198219963908
21 -0.015501723018385
22 0.0
23 0.76437904826776
24 0.48635915603066
25 0.13841909702801
26 -0.076303615421333
27 -0.062115481606675
28 0.0
29 0.0
30 0.096239953022610
31 0.41133781969047
32 0.088492315462931
33 0.0
34 -0.24491743975777
35 0.69792933835871
36 0.41133781969047
37 0.088492315462931
38 0.0
39 0.24491743975777
40 -0.69792933835871
 Sym=      4.2
 Ene=       1.8577
 Spin= Alpha
 Occup=    0.000000
1 0.0
2 0.0
3 0.0
4 0.22312776743139
5 0.0
6 0.0
7 0.022117384130472
8 0.0
9 0.0
10 0.0
11 0.0
12 0.0
13 -0.12957377180861
14 0.58269650823034
15 0.0
16 0.0
17 0.0
18 0.0
19 0.22312776743139
20 0.0
21 0.0
22 0.022117384130472
23 0.0
24 0.0
25 0.0
26 0.0
27 0.0
28 0.12957377180861
29 -0.58269650823034
30 0.0
31 0.0
32 0.0
33 -0.19261207263550
34 0.0
35 0.0
36 0.0
37 0.0
38 -0.19261207263550
39 0.0
40 0.0