[Molden Format]
[Molpro variables]
_NUMVAR=  784.0000000000000    
_AVOGAD= 0.6022136736000000E+24
_BOLTZ= 0.1380658000000000E-22
_CLIGHT=  29979245800.00000    
_EV2006= 0.3674930886769165E-01
_EV= 0.3674932534394180E-01
_ENULL= 0.8854187817000000E-11
_KJOULE= 0.3808798324128737E-03
_KJOULE/MOL= 0.3808798324128737E-03
_CM= 0.4556335267302901E-05
_CM-1= 0.4556335267302901E-05
_DEB2SI= 0.3335641000000000E-29
_AMU2AU=  1822.888390000000    
_KCAL= 0.1593601117815568E-02
_KCAL/MOL= 0.1593601117815568E-02
_KELVIN2006= 0.3166828861084835E-05
_KELVIN= 0.3166814820820034E-05
_JOULE= 0.4359748200000000E-17
_HERTZ2006= 0.1519829850815779E-15
_HERTZ= 0.1519829846011223E-15
_HZ2006= 0.1519829850815779E-15
_HZ= 0.1519829846011223E-15
_JPCAL=  4.184000000000000    
_PLANCK= 0.6626075540000000E-33
_TOA2006= 0.5291772490000000    
_TOA= 0.5291772090000000    
_TOANG2006= 0.5291772490000000    
_TOANG= 0.5291772090000000    
_TORAD= 0.1745329251994330E-01
_TOCM=  219474.6306700000    
_TODEBYE=  2.541580000000000    
_TOEV2006=  27.21139610000000    
_TOE= 0.4803242000000000E-09
_TOEV=  27.21138390000000    
_TOHERTZ2006=  6579683899900000.    
_TOHERTZ=  6579683920700000.    
_TOHZ2006=  6579683899900000.    
_TOHZ=  6579683920700000.    
_TOK2006=  315773.3000000000    
_TOK=  315774.7000000000    
_TOKCAL=  627.5096000000000    
_TOKELVIN2006=  315773.3000000000    
_TOKELVIN=  315774.7000000000    
_TOKJ=  2625.500000000000    
_TOKJOULE=  2625.500000000000    
_TOKG= 0.1660565586000000E-26
_ANG2006=  1.889725988578923    
_ANG=  1.889726131421507    
_ANGSTROM2006=  1.889725988578923    
_ANGSTROM=  1.889726131421507    
_RPAREF=  0.000000000000000    
_RPADISS=  0.000000000000000    
_IGNORE_UNDEF=  2.000000000000000    
_STRICTCHECK=  0.000000000000000    
_SEW_ONEEL=  0.000000000000000    
_CPPDONE=FALSE
_DKROLL_DONE=  0.000000000000000    
_FOCKDONE=TRUE
_GRADONE=FALSE
_HESSDONE=FALSE
_INTDONE=TRUE
_SCFDONE=TRUE
_MODUL_BLOCK=FALSE
_MODUL_CUDA=FALSE
_MODUL_SLATER=FALSE
_MODUL_MRCC=FALSE
_MODUL_NBO6=FALSE
_MODUL_NECI=TRUE
_MODUL_AIMS=TRUE
_MRCC_EXEC=
_FITC_AO_SAVED=FALSE
_FITC_MO_SAVED=FALSE
_SHARED_FS=TRUE
_LSTYP=SEWARD
_INTYP=INTS
_GEOMTYP=ZMAT
_GRADTYP=ALASKA
_DIRECT=FALSE
_DKHO= -1.000000000000000    
_SYNCM=  0.000000000000000    
_BASIS=USERDEF
_ZORIENT=  1.000000000000000    
_NELEC=  18.00000000000000    
!SPIN=  0.000000000000000    
_QSDSTEP=  0.000000000000000    
_QSDIRC=  0.000000000000000    
_PROGRAM=HF-SCF
_CPUSTEP= 0.6000000000000000E-01
_SYSSTEP= 0.1000000000000001E-01
_WALLSTEP= 0.4100000000000000    
!DFSCF=  0.000000000000000    
!SCSGRD=  0.000000000000000    
_BASINP=  610.0000000000000    
_CPUTOT= 0.3300000000000000    
_CPUSORT= 0.3999999999999998E-01
_SYSSORT= 0.5000000000000002E-01
_WALLSORT= 0.1400000005960464    
_DFTEXFAC=  1.000000000000000    
_DMX= 0.7443828750337677    
_DMY=  0.000000000000000    
_DMZ=  0.000000000000000    
_DMX_SCF= 0.7443828750337677    
_DMY_SCF=  0.000000000000000    
_DMZ_SCF=  0.000000000000000    
_EHOMO=-0.4665071449525308    
_ELUMO= 0.1919357610532393    
_ENERGY= -150.7867668270452    
_ENUC=  38.06106386395650    
_EPS1= -20.61667115142843    
_EPS2= -20.61633259179552    
_GRADEXFAC=  9999.000000000000    
_GRADMETHOD=  1.000000000000000    
_NMRMETHOD=  0.000000000000000    
!GRID_FREEZE= -1.000000000000000    
_ITERATIONS=  9.000000000000000    
_LASTNELEC=  18.00000000000000    
_LASTSPIN=  0.000000000000000    
_LASTSYM=  1.000000000000000    
_MPP_PROG=  0.000000000000000    
_NPROC_MPP=  1.000000000000000    
_NPROC_MPPX=  1.000000000000000    
_NPROC_SMP=  16.00000000000000    
_NUMSTEP=  0.000000000000000    
_ORBITAL=  2100.200000000000    
_PI=  3.141592653589793    
_SEIG_MIN= 0.2212598707150805E-01
_SEWPROP=TRUE
_STATUS=  1.000000000000000    
_SYSTOT= 0.1300000000000000    
_VERSION=  2012001.000000000    
_WALLTOT=  2.160000000000000    
_DATE=24-Jan-19
_LASTORB=RHF
_MACHINE=Linux-4.9.0-8-amd64/nympha18.meta.zcu.cz(x86_64) (16 PROC) 64 bit serial version
_OUTPUT=/auto/brno2/home/masiz4am/git/UKRmol-in/tests/suite/C2_target_HF2/molpro.xml
_PGROUP=C2
_TIME=16:16:10
_LIBMOL=/afs/ics.muni.cz/software/molpro-2012.1/molprop_2012_1_Linux_x86_64_i8/lib/
!VIBCNT=  0.000000000000000    
!RGHFCNT=  0.000000000000000    
!SURFREC=  0.000000000000000    
!POLYREC=  0.000000000000000    
!DIPREC=  0.000000000000000    
!VSCFREC=  0.000000000000000    
!VCIREC=  0.000000000000000    
!PVCIREC=  0.000000000000000    
!VMP2REC=  0.000000000000000    
!VMCSCFREC=  0.000000000000000    
!VMRCIREC=  0.000000000000000    
!VIBINFO=  0.000000000000000    
!GAREC=  0.000000000000000    
!SCFORB=  21002.00000000000    
!NEWMOL= -1.000000000000000    
!NEWSYM= -1.000000000000000    
_SLFILES=slscratch
_NGSSTO=  9.000000000000000    
_SIN=SIN
_COS=COS
_TAN=TAN
_ACOS=ACOS
_ASIN=ASIN
_ATAN=ATAN
_COSH=COSH
_SINH=SINH
_TANH=TANH
_ABS=ABS
_MOD=MOD
_ERF=ERF
_REFC=REFC
_ERFC=ERFC
_HYPOT=HYPOT
_J0=J0
_J1=J1
_JN=JN
_GAMMA=GAMMA
_LGAMMA=LGAMMA
_Y0=Y0
_Y1=Y1
_YN=YN
_EXP=EXP
_LOG=LOG
_LOG10=LOG10
_SQRT=SQRT
_INT=INT
_NINT=NINT
_MAX=MAX
_MIN=MIN
_COSMO=  0.000000000000000    
_COSMOIT=  0.000000000000000    
_COSMOES=  0.000000000000000    
_COSMOEDS=  0.000000000000000    
_COSMOEC=  0.000000000000000    
_COSMOEDCORR=  0.000000000000000    
_FEPSI=  1.000000000000000    
_SL_IsMM=  0.000000000000000    
_SL_NSYM=  2.000000000000000    
_SL_System_BitSw=  0.000000000000000    
_SL_Unique_atoms=  0.000000000000000    
_SL_GRAD=  0.000000000000000    
_SL_MAXUPD_Hess=  5.000000000000000    
_SL_N_PRINT_COD=  5.000000000000000    
_SL_PRINT_CODES=  0.000000000000000    
_SL_BasType=  0.000000000000000    
_SL_Energy_Pred=  0.000000000000000    
_SL_New_Coords=  0.000000000000000    
_SL_Total_Nuclea=  0.000000000000000    
_SL_Highest_Mltp=  0.000000000000000    
_SL_Ref_Geom=  0.000000000000000    
_SL_Symmetry_ope=  1.000000000000000    
_SL_agrad=  0.000000000000000    
_SL_GrdMax=  0.000000000000000    
_SL_GrdNorm=  0.000000000000000    
_SL_GrdRMS=  0.000000000000000    
!LATTICE= -1.000000000000000    
!NEWLATTICE=  0.000000000000000    
!LATGRAD_VAR=FALSE
!SEW_LATTICE=  1.000000000000000    
!LOCAL=  0.000000000000000    
!SAVEDOM= -1.000000000000000    
!RESTDOM= -1.000000000000000    
!SAVEDOM_HF= -1.000000000000000    
!RESTDOM_HF= -1.000000000000000    
!HESSREC=  0.000000000000000    
!FREQREC=  0.000000000000000    
!NMODREC=  0.000000000000000    
!GTASKS=  0.000000000000000    
!HTASKS=  0.000000000000000    
!THRCHG= 0.1000000000000000    
!DEBUG= -1.000000000000000    
!CFIT_CPHF=  0.000000000000000    
!RDOMAUX_CPHF=  3.000000000000000    
!THRAO_CPHF= 0.1000000000000000E-09
!THRMO_CPHF= 0.1000000000000000E-08
!THROV_CPHF= 0.1000000000000000E-11
!THRSW_CPHF= 0.1000000000000000E-09
!THRPROD_CPHF= 0.1000000000000000E-08
!THRAOPR_CPHF= 0.1000000000000000E-11
!CFIT_SCFGRD=  0.000000000000000    
!RDOMAUX_SCFGRD=  5.000000000000000    
!THRAO_SCFGRD= 0.1000000000000000E-09
!THRMO_SCFGRD= 0.1000000000000000E-08
!THROV_SCFGRD= 0.1000000000000000E-11
!THRSW_SCFGRD= 0.1000000000000000E-09
!THRPROD_SCFGRD= 0.1000000000000000E-08
!THRAOPR_SCFGRD= 0.1000000000000000E-11
!LOCFIT_SCF=  0.000000000000000    
!LOCFIT_MP2= -1.000000000000000    
_RIDOM=  0.000000000000000    
!CC2_METHOD=  0.000000000000000    
_BASIS2006=FALSE
_SVDDEL= -1.000000000000000    
_SVDDELA= -1.000000000000000    
_SVDDELP= -1.000000000000000    
_SVDDELF= -1.000000000000000    
_SVDDELS= -1.000000000000000    
_SVDDEL_ABS= -1.000000000000000    
_SVDDELA_ABS= -1.000000000000000    
_SVDDELP_ABS= -1.000000000000000    
_SVDDELF_ABS= -1.000000000000000    
_SVDDELS_ABS= -1.000000000000000    
_MAXBASIS=  0.000000000000000    
!OPT_CONICAL=  0.000000000000000    
!CLEARSP_JGRID=  0.000000000000000    
_4EXT_NDISKS=  1.000000000000000    
!ZMP=  0.000000000000000    
_MAXIT_ZMP=  500.0000000000000    
_MAXDIS_ZMP=  100.0000000000000    
_ACCU_ZMP=  14.00000000000000    
_SHIFTA_ZMP= -100.0000000000000    
!EMBEDFLAG=  1.000000000000000    
!EMBED=FALSE
!EMBED_F12=FALSE
!EMBEDNUC=  0.000000000000000    
_EMBEDENERGY=  0.000000000000000    
_KSPACETIME=  0.000000000000000    
_RSPACETIME=  0.000000000000000    
!EMBED_DFC=FALSE
!NUM_VOIDS=  0.000000000000000    
_IBODY=  0.000000000000000    
_EMBE_TOTAL=  0.000000000000000    
_EMBE_HF=  0.000000000000000    
_EMBE_CORR=  0.000000000000000    
!EDFT=  0.000000000000000    
_IFASTLATGRAD=  0.000000000000000    
_SINDEX=  0.000000000000000    
GX1=-0.1043128750000000    
GY1=  0.000000000000000    
GZ1=  1.315816206000000    
GX2= 0.8345029970000000    
GY2=  1.477198805000000    
GZ2=  1.699052636000000    
GX3=-0.1043128750000000    
GY3=  0.000000000000000    
GZ3= -1.315816206000000    
GX4= 0.8345029970000000    
GY4= -1.477198805000000    
GZ4= -1.699052636000000    
[Atoms] Angs
O     1    8        -0.0551999961        0.0000000000        0.6962999474
H     2    1         0.4415999669        0.7816999408        0.8990999319
O     3    8        -0.0551999961        0.0000000000       -0.6962999474
H     4    1         0.4415999669       -0.7816999408       -0.8990999319
[GTO]
  1 0
 s    8  1.00
  0.1172000000D+05  0.7096459465D-03
  0.1759000000D+04  0.5467272292D-02
  0.4008000000D+03  0.2782311861D-01
  0.1137000000D+03  0.1047477397D+00
  0.3703000000D+02  0.2829208464D+00
  0.1327000000D+02  0.4484952387D+00
  0.5025000000D+01  0.2708168852D+00
  0.1013000000D+01  0.1545029161D-01
 s    8  1.00
  0.1172000000D+05 -0.3144434117D-03
  0.1759000000D+04 -0.2482137681D-02
  0.4008000000D+03 -0.1231635538D-01
  0.1137000000D+03 -0.5053891734D-01
  0.3703000000D+02 -0.1393849033D+00
  0.1327000000D+02 -0.3250774948D+00
  0.5025000000D+01 -0.2298483076D+00
  0.1013000000D+01  0.1095379347D+01
 s    1  1.00
  0.3023000000D+00  0.1000000000D+01
 p    3  1.00
  0.1770000000D+02  0.6267916628D-01
  0.3854000000D+01  0.3335365659D+00
  0.1046000000D+01  0.7412396416D+00
 p    1  1.00
  0.2753000000D+00  0.1000000000D+01
 d    1  1.00
  0.1185000000D+01  0.1000000000D+01
  
  3 0
 s    8  1.00
  0.1172000000D+05  0.7096459465D-03
  0.1759000000D+04  0.5467272292D-02
  0.4008000000D+03  0.2782311861D-01
  0.1137000000D+03  0.1047477397D+00
  0.3703000000D+02  0.2829208464D+00
  0.1327000000D+02  0.4484952387D+00
  0.5025000000D+01  0.2708168852D+00
  0.1013000000D+01  0.1545029161D-01
 s    8  1.00
  0.1172000000D+05 -0.3144434117D-03
  0.1759000000D+04 -0.2482137681D-02
  0.4008000000D+03 -0.1231635538D-01
  0.1137000000D+03 -0.5053891734D-01
  0.3703000000D+02 -0.1393849033D+00
  0.1327000000D+02 -0.3250774948D+00
  0.5025000000D+01 -0.2298483076D+00
  0.1013000000D+01  0.1095379347D+01
 s    1  1.00
  0.3023000000D+00  0.1000000000D+01
 p    3  1.00
  0.1770000000D+02  0.6267916628D-01
  0.3854000000D+01  0.3335365659D+00
  0.1046000000D+01  0.7412396416D+00
 p    1  1.00
  0.2753000000D+00  0.1000000000D+01
 d    1  1.00
  0.1185000000D+01  0.1000000000D+01
  
  2 0
 s    3  1.00
  0.1301000000D+02  0.3349872639D-01
  0.1962000000D+01  0.2348008012D+00
  0.4446000000D+00  0.8136829579D+00
 s    1  1.00
  0.1220000000D+00  0.1000000000D+01
 p    1  1.00
  0.7270000000D+00  0.1000000000D+01
  
  4 0
 s    3  1.00
  0.1301000000D+02  0.3349872639D-01
  0.1962000000D+01  0.2348008012D+00
  0.4446000000D+00  0.8136829579D+00
 s    1  1.00
  0.1220000000D+00  0.1000000000D+01
 p    1  1.00
  0.7270000000D+00  0.1000000000D+01
 
 
[MO]
 Sym=      1.1
 Ene=     -20.6167
 Spin= Alpha
 Occup=    2.000000
1 0.70777801065377
2 0.000849780828019
3 -0.002157594967021
4 0.000594423176532
5 0.000827267281766
6 -0.000855214891860
7 -0.000262962577219
8 -0.000414584420590
9 0.000378703648045
10 0.000160232709224
11 0.000177623829900
12 -0.000337856539124
13 0.000024719441814
14 0.000011826348468
15 0.000054080322489
16 0.70777801065377
17 0.000849780828019
18 -0.002157594967021
19 0.000594423176532
20 -0.000827267281766
21 0.000855214891860
22 -0.000262962577219
23 0.000414584420590
24 -0.000378703648045
25 0.000160232709224
26 0.000177623829900
27 -0.000337856539124
28 -0.000024719441814
29 -0.000011826348468
30 0.000054080322489
31 -0.000058758773788
32 0.000574893365642
33 0.000247646361440
34 0.000381637003359
35 -0.000039648626655
36 -0.000058758773788
37 0.000574893365642
38 0.000247646361440
39 -0.000381637003359
40 0.000039648626655
 Sym=      1.2
 Ene=     -20.6163
 Spin= Alpha
 Occup=    2.000000
1 0.70786233907126
2 0.000938815912360
3 -0.003586549249208
4 0.000592629257780
5 0.000825983014503
6 -0.000600396694645
7 -0.000241281790158
8 -0.000223041191763
9 0.001499700725161
10 0.000117368262120
11 0.000152050938666
12 -0.000269419200786
13 0.000036881515156
14 0.000031044825288
15 0.000012089840623
16 -0.70786233907126
17 -0.000938815912360
18 0.003586549249208
19 -0.000592629257780
20 0.000825983014503
21 -0.000600396694645
22 0.000241281790158
23 -0.000223041191763
24 0.001499700725161
25 -0.000117368262120
26 -0.000152050938666
27 0.000269419200786
28 0.000036881515156
29 0.000031044825288
30 -0.000012089840623
31 0.000034250323463
32 0.000073766612092
33 0.000306305178437
34 0.000467359533966
35 0.000076370444703
36 -0.000034250323463
37 -0.000073766612092
38 -0.000306305178437
39 0.000467359533966
40 0.000076370444703
 Sym=      2.1
 Ene=      -1.4984
 Spin= Alpha
 Occup=    2.000000
1 -0.006674939815218
2 0.31555333931358
3 0.28520042205221
4 0.024290875750558
5 0.028039237094589
6 -0.086380490337922
7 0.003885898881226
8 -0.006543116817985
9 -0.035619468907321
10 -0.009029386154583
11 -0.006912218233524
12 0.015941604388107
13 0.002407429012764
14 -0.002138412781244
15 0.000131428399468
16 -0.006674939815218
17 0.31555333931358
18 0.28520042205221
19 0.024290875750558
20 -0.028039237094589
21 0.086380490337922
22 0.003885898881226
23 0.006543116817985
24 0.035619468907321
25 -0.009029386154583
26 -0.006912218233524
27 0.015941604388107
28 -0.002407429012764
29 0.002138412781244
30 0.000131428399468
31 0.11260496118807
32 -0.003957499872504
33 -0.013287992181035
34 -0.020494583243987
35 -0.005725103326616
36 0.11260496118807
37 -0.003957499872504
38 -0.013287992181035
39 0.020494583243987
40 0.005725103326616
 Sym=      2.2
 Ene=      -1.2037
 Spin= Alpha
 Occup=    2.000000
1 -0.001596159913440
2 0.32474235968481
3 0.33055225357772
4 0.037909818475721
5 0.072045216106620
6 0.082649964852299
7 -0.000107515313226
8 0.006204352497370
9 0.031147170186199
10 0.003214641701581
11 0.006994368742319
12 -0.010209010443900
13 0.004286171950653
14 0.002272814267052
15 0.000340350168925
16 0.001596159913440
17 -0.32474235968481
18 -0.33055225357772
19 -0.037909818475721
20 0.072045216106620
21 0.082649964852299
22 0.000107515313226
23 0.006204352497370
24 0.031147170186199
25 -0.003214641701581
26 -0.006994368742319
27 0.010209010443900
28 0.004286171950653
29 0.002272814267052
30 -0.000340350168925
31 0.18701075676653
32 0.008083517406406
33 -0.018759469491072
34 -0.029563617257786
35 -0.006279547006851
36 -0.18701075676653
37 -0.008083517406406
38 0.018759469491072
39 -0.029563617257786
40 -0.006279547006851
 Sym=      3.1
 Ene=      -0.7245
 Spin= Alpha
 Occup=    2.000000
1 0.001366399734159
2 -0.021957264429572
3 -0.084896999026294
4 0.28097660428569
5 0.14853781847686
6 0.23160750460841
7 0.15370228663830
8 0.053323827213070
9 0.12233672251872
10 0.012247633094707
11 0.012896279832292
12 -0.025143912926999
13 0.010386778110071
14 -0.006251260438987
15 0.006524624790629
16 0.001366399734159
17 -0.021957264429572
18 -0.084896999026294
19 0.28097660428569
20 -0.14853781847686
21 -0.23160750460841
22 0.15370228663830
23 -0.053323827213070
24 -0.12233672251872
25 0.012247633094707
26 0.012896279832292
27 -0.025143912926999
28 -0.010386778110071
29 0.006251260438987
30 0.006524624790629
31 0.25726627980112
32 0.049239011190348
33 -0.011268147203333
34 -0.031173857015898
35 -0.002914929956424
36 0.25726627980112
37 0.049239011190348
38 -0.011268147203333
39 0.031173857015898
40 0.002914929956424
 Sym=      3.2
 Ene=      -0.7121
 Spin= Alpha
 Occup=    2.000000
1 0.000204736378213
2 -0.11409570100397
3 -0.22460076266085
4 0.056622722009673
5 0.37221952416478
6 -0.044765551219440
7 0.013442358288907
8 0.21567759283606
9 -0.040877202028198
10 -0.003990095591497
11 0.007961135973423
12 -0.003971040381927
13 0.009649024264205
14 0.000983428606350
15 -0.014944408720339
16 -0.000204736378213
17 0.11409570100397
18 0.22460076266085
19 -0.056622722009673
20 0.37221952416478
21 -0.044765551219440
22 -0.013442358288907
23 0.21567759283606
24 -0.040877202028198
25 0.003990095591497
26 -0.007961135973423
27 0.003971040381927
28 0.009649024264205
29 0.000983428606350
30 0.014944408720339
31 0.20287375852282
32 0.035832361058154
33 -0.016226085027622
34 -0.016083295233189
35 -0.013799880677600
36 -0.20287375852282
37 -0.035832361058154
38 0.016226085027622
39 -0.016083295233189
40 -0.013799880677600
 Sym=      4.1
 Ene=      -0.6158
 Spin= Alpha
 Occup=    2.000000
1 -0.003189086851558
2 -0.071236724776870
3 -0.10740949516500
4 0.29179524247676
5 -0.070960127441025
6 -0.31767614992055
7 0.21484289140144
8 -0.038788512021429
9 -0.20352645101638
10 -0.005236636892802
11 -0.014804694747206
12 0.020041331640008
13 0.004319726848239
14 -0.016283446339962
15 -0.005841760555239
16 -0.003189086851558
17 -0.071236724776870
18 -0.10740949516500
19 0.29179524247676
20 0.070960127441025
21 0.31767614992055
22 0.21484289140144
23 0.038788512021429
24 0.20352645101638
25 -0.005236636892802
26 -0.014804694747206
27 0.020041331640008
28 -0.004319726848239
29 0.016283446339962
30 -0.005841760555239
31 -0.038218939071653
32 -0.030202942936206
33 0.015824823002317
34 0.001496889806676
35 -0.009877557303362
36 -0.038218939071653
37 -0.030202942936206
38 0.015824823002317
39 -0.001496889806676
40 0.009877557303362
 Sym=      5.1
 Ene=      -0.5042
 Spin= Alpha
 Occup=    2.000000
1 0.000734299351519
2 -0.070510943104519
3 -0.17283616610623
4 -0.12587949976640
5 0.39583364089288
6 -0.18535579580211
7 -0.10358298486044
8 0.28163465234780
9 -0.13319530734986
10 -0.012205376486943
11 0.006354347659889
12 0.005851028827055
13 0.006218796044353
14 0.003031159298066
15 0.000879694794136
16 0.000734299351519
17 -0.070510943104519
18 -0.17283616610623
19 -0.12587949976640
20 -0.39583364089288
21 0.18535579580211
22 -0.10358298486044
23 -0.28163465234780
24 0.13319530734986
25 -0.012205376486943
26 0.006354347659889
27 0.005851028827055
28 -0.006218796044353
29 -0.003031159298066
30 0.000879694794136
31 0.15965386730846
32 0.002938911690006
33 -0.019446595568082
34 -0.000794725183620
35 -0.007913640003542
36 0.15965386730846
37 0.002938911690006
38 -0.019446595568082
39 0.000794725183620
40 0.007913640003542
 Sym=      4.2
 Ene=      -0.4665
 Spin= Alpha
 Occup=    2.000000
1 -0.000760822498956
2 -0.044584335091016
3 -0.096277971535263
4 0.46170173329587
5 -0.11673832650146
6 -0.017185030229447
7 0.34781303134988
8 -0.10878614968170
9 -0.024159394247890
10 0.007775247232968
11 -0.005199086497782
12 -0.002576160735185
13 0.008999856866064
14 0.003745733056951
15 0.005437166204400
16 0.000760822498956
17 0.044584335091016
18 0.096277971535263
19 -0.46170173329587
20 -0.11673832650146
21 -0.017185030229447
22 -0.34781303134988
23 -0.10878614968170
24 -0.024159394247890
25 -0.007775247232968
26 0.005199086497782
27 0.002576160735185
28 0.008999856866064
29 0.003745733056951
30 -0.005437166204400
31 0.11751510962731
32 0.029536379564269
33 0.014055307635997
34 -0.021290363184501
35 -0.001474615432869
36 -0.11751510962731
37 -0.029536379564269
38 -0.014055307635997
39 -0.021290363184501
40 -0.001474615432869
 Sym=      6.1
 Ene=       0.1919
 Spin= Alpha
 Occup=    0.000000
1 0.029400928974297
2 -0.051865949743094
3 -0.64207762828254
4 -0.083211435218381
5 -0.11504799120440
6 -0.065222696563658
7 -0.15574822283446
8 -0.21842726387636
9 -0.095379280287179
10 0.001258130677366
11 -0.003578219016899
12 0.002320088339533
13 -0.008996663027870
14 0.000434056529509
15 -0.003237974140197
16 0.029400928974297
17 -0.051865949743094
18 -0.64207762828254
19 -0.083211435218381
20 0.11504799120440
21 0.065222696563658
22 -0.15574822283446
23 0.21842726387636
24 0.095379280287179
25 0.001258130677366
26 -0.003578219016899
27 0.002320088339533
28 0.008996663027870
29 -0.000434056529509
30 -0.003237974140197
31 0.048350765766388
32 0.94331210298146
33 -0.008155484160605
34 -0.013915040961527
35 -0.005806672850993
36 0.048350765766388
37 0.94331210298146
38 -0.008155484160605
39 0.013915040961527
40 0.005806672850993
 Sym=      5.2
 Ene=       0.2007
 Spin= Alpha
 Occup=    0.000000
1 0.020757803740036
2 -0.084650913721367
3 -0.59799305856812
4 -0.080070243486810
5 -0.12563155389104
6 0.13277928985402
7 -0.14834326390470
8 -0.27206069725601
9 0.084298938755804
10 -0.002830480854408
11 -0.010181159722826
12 0.013011640577234
13 -0.007215160488861
14 0.000370751507248
15 0.004666381796235
16 -0.020757803740036
17 0.084650913721367
18 0.59799305856812
19 0.080070243486810
20 -0.12563155389104
21 0.13277928985402
22 0.14834326390470
23 -0.27206069725601
24 0.084298938755804
25 0.002830480854408
26 0.010181159722826
27 -0.013011640577234
28 -0.007215160488861
29 0.000370751507248
30 -0.004666381796235
31 0.060265671911265
32 1.05448722466330
33 -0.015699396534473
34 -0.021781937284874
35 0.013837990661707
36 -0.060265671911265
37 -1.05448722466330
38 0.015699396534473
39 -0.021781937284874
40 0.013837990661707
 Sym=      6.2
 Ene=       0.3477
 Spin= Alpha
 Occup=    0.000000
1 -0.001328306393229
2 -0.12200845219714
3 -0.39368306942921
4 0.043548123571862
5 0.083462264155346
6 0.44287922297872
7 0.088276465510818
8 0.14183077497336
9 0.84879282763502
10 -0.007218342905276
11 -0.006757880603174
12 0.013976223508450
13 -0.000391410233174
14 0.006590689083976
15 0.005424951109690
16 0.001328306393229
17 0.12200845219714
18 0.39368306942921
19 -0.043548123571862
20 0.083462264155346
21 0.44287922297872
22 -0.088276465510818
23 0.14183077497336
24 0.84879282763502
25 0.007218342905276
26 0.006757880603174
27 -0.013976223508450
28 -0.000391410233174
29 0.006590689083976
30 -0.005424951109690
31 -0.043077563694711
32 -0.51544328239759
33 -0.003245068251015
34 -0.002739303286662
35 0.022477620142781
36 0.043077563694711
37 0.51544328239759
38 0.003245068251015
39 -0.002739303286662
40 0.022477620142781
 Sym=      7.2
 Ene=       0.8341
 Spin= Alpha
 Occup=    0.000000
1 -0.046890938512452
2 -0.18432452835417
3 0.14072927964189
4 -0.18516092369613
5 -0.13914057824110
6 0.071223210732000
7 -0.077586818877295
8 -0.092594887055160
9 -0.073447161843251
10 -0.018833631276596
11 0.034332461353079
12 -0.015498830076483
13 0.067398503593716
14 0.009102222918639
15 0.046430956979256
16 0.046890938512452
17 0.18432452835417
18 -0.14072927964189
19 0.18516092369613
20 -0.13914057824110
21 0.071223210732000
22 0.077586818877295
23 -0.092594887055160
24 -0.073447161843251
25 0.018833631276596
26 -0.034332461353079
27 0.015498830076483
28 0.067398503593716
29 0.009102222918639
30 -0.046430956979256
31 0.88988527702476
32 -0.72443929587532
33 0.11464778709478
34 0.18044961151559
35 0.070367978707392
36 -0.88988527702476
37 0.72443929587532
38 -0.11464778709478
39 0.18044961151559
40 0.070367978707392
 Sym=      7.1
 Ene=       0.8409
 Spin= Alpha
 Occup=    0.000000
1 -0.024836550541663
2 -0.095532546989248
3 0.15204914410694
4 -0.11743700208812
5 -0.30219389442177
6 0.025647040826750
7 -0.034261406447851
8 -0.077000253021191
9 -0.11293709928293
10 -0.005382380829380
11 0.050298720521957
12 -0.044916339692577
13 0.062674761765182
14 0.029214753557522
15 0.014626365106033
16 -0.024836550541663
17 -0.095532546989248
18 0.15204914410694
19 -0.11743700208812
20 0.30219389442177
21 -0.025647040826750
22 -0.034261406447851
23 0.077000253021191
24 0.11293709928293
25 -0.005382380829380
26 0.050298720521957
27 -0.044916339692577
28 -0.062674761765182
29 -0.029214753557522
30 0.014626365106033
31 0.82259537968067
32 -0.58783862237206
33 0.12985382337953
34 0.20327934019572
35 0.055220233505413
36 0.82259537968067
37 -0.58783862237206
38 0.12985382337953
39 -0.20327934019572
40 -0.055220233505413
 Sym=      8.2
 Ene=       1.1196
 Spin= Alpha
 Occup=    0.000000
1 0.007464063662093
2 -0.071801556644556
3 -0.74411556364819
4 -0.013419202555395
5 0.43423201280369
6 -0.45362428233913
7 -0.18346787115369
8 -0.59977513234139
9 0.86893379217602
10 0.015577303671295
11 0.014341787256228
12 -0.029919090927522
13 0.002760466345617
14 -0.004774113832576
15 -0.003429652082586
16 -0.007464063662093
17 0.071801556644556
18 0.74411556364819
19 0.013419202555395
20 0.43423201280369
21 -0.45362428233913
22 0.18346787115369
23 -0.59977513234139
24 0.86893379217602
25 -0.015577303671295
26 -0.014341787256228
27 0.029919090927522
28 0.002760466345617
29 -0.004774113832576
30 0.003429652082586
31 0.35373316440777
32 0.017915224668736
33 -0.058090218999119
34 -0.11575321122756
35 -0.037021940972969
36 -0.35373316440777
37 -0.017915224668736
38 0.058090218999119
39 -0.11575321122756
40 -0.037021940972969
 Sym=      8.1
 Ene=       1.1423
 Spin= Alpha
 Occup=    0.000000
1 0.033421958487497
2 0.12663029051572
3 0.39751047983170
4 -0.33571036791506
5 -0.22090394922843
6 -0.24437703781821
7 0.53560165061426
8 0.85291288737287
9 0.33550691578501
10 -0.023487197406485
11 -0.034843387345434
12 0.058330584751919
13 0.008295201610191
14 0.010303867474983
15 0.016629728962519
16 0.033421958487497
17 0.12663029051572
18 0.39751047983170
19 -0.33571036791506
20 0.22090394922843
21 0.24437703781821
22 0.53560165061426
23 -0.85291288737287
24 -0.33550691578501
25 -0.023487197406485
26 -0.034843387345434
27 0.058330584751919
28 -0.008295201610191
29 -0.010303867474983
30 0.016629728962519
31 -0.57360875696953
32 -0.10663389065296
33 0.14336932210977
34 0.13401722273390
35 0.21367441040750
36 -0.57360875696953
37 -0.10663389065296
38 0.14336932210977
39 -0.13401722273390
40 -0.21367441040750
 Sym=      9.1
 Ene=       1.1530
 Spin= Alpha
 Occup=    0.000000
1 0.010886613520642
2 0.033412857452812
3 -0.083214637094048
4 -0.54898832130391
5 0.27550256419348
6 0.21274235206681
7 0.46795696906415
8 -0.44666362588584
9 -0.17296518906257
10 0.012431096260740
11 0.019989699868251
12 -0.032420796128991
13 -0.004067417876328
14 -0.004867966110654
15 -0.008268581849636
16 0.010886613520642
17 0.033412857452812
18 -0.083214637094048
19 -0.54898832130391
20 -0.27550256419348
21 -0.21274235206681
22 0.46795696906415
23 0.44666362588584
24 0.17296518906257
25 0.012431096260740
26 0.019989699868251
27 -0.032420796128991
28 0.004067417876328
29 0.004867966110654
30 -0.008268581849636
31 0.076761856579424
32 -0.051153538441561
33 0.006821923108431
34 0.013416874387900
35 -0.17493398925140
36 0.076761856579424
37 -0.051153538441561
38 0.006821923108431
39 -0.013416874387900
40 0.17493398925140
 Sym=      9.2
 Ene=       1.2169
 Spin= Alpha
 Occup=    0.000000
1 -0.005266788508150
2 0.045250088829654
3 0.42453635752745
4 -0.48157333721341
5 0.30189554836193
6 0.21807689688649
7 0.75116422828421
8 -0.22448235577643
9 -0.77301065040324
10 -0.006738105425400
11 -0.013331744287946
12 0.020069849713346
13 -0.020086721720402
14 0.016463171496557
15 0.013893334064607
16 0.005266788508150
17 -0.045250088829654
18 -0.42453635752745
19 0.48157333721341
20 0.30189554836193
21 0.21807689688649
22 -0.75116422828421
23 -0.22448235577643
24 -0.77301065040324
25 0.006738105425400
26 0.013331744287946
27 -0.020069849713346
28 -0.020086721720402
29 0.016463171496557
30 -0.013893334064607
31 -0.22297395542117
32 0.31200914899732
33 -0.026141083602317
34 -0.052683631898424
35 0.22799380823408
36 0.22297395542117
37 -0.31200914899732
38 0.026141083602317
39 -0.052683631898424
40 0.22799380823408
 Sym=     10.2
 Ene=       1.2806
 Spin= Alpha
 Occup=    0.000000
1 -0.024105086840069
2 -0.052389436663860
3 0.076588059736336
4 -0.31226096466923
5 -0.24802516007025
6 -0.40055627783041
7 0.78860016150459
8 0.65028014187190
9 1.05325445845470
10 0.013631786503080
11 0.019446238728553
12 -0.033078025231633
13 -0.004806358942159
14 0.018675119824348
15 -0.017200107330827
16 0.024105086840069
17 0.052389436663860
18 -0.076588059736336
19 0.31226096466923
20 -0.24802516007025
21 -0.40055627783041
22 -0.78860016150459
23 0.65028014187190
24 1.05325445845470
25 -0.013631786503080
26 -0.019446238728553
27 0.033078025231633
28 -0.004806358942159
29 0.018675119824348
30 0.017200107330827
31 -0.43685600827998
32 -0.58591729186273
33 0.14468150736691
34 0.23111997579887
35 -0.007825039433193
36 0.43685600827998
37 0.58591729186273
38 -0.14468150736691
39 0.23111997579887
40 -0.007825039433193
 Sym=     10.1
 Ene=       1.3310
 Spin= Alpha
 Occup=    0.000000
1 -0.10409997312417
2 -0.28680181801519
3 0.38027267190619
4 -0.039296292584587
5 0.32813970336633
6 -0.51890077697678
7 -0.044166019282294
8 -0.67391350144502
9 0.53911779987624
10 -0.041787272065098
11 -0.023205396112098
12 0.064992668177196
13 0.031017967089488
14 0.019983535836194
15 -0.012573160932829
16 -0.10409997312417
17 -0.28680181801519
18 0.38027267190619
19 -0.039296292584587
20 -0.32813970336633
21 0.51890077697678
22 -0.044166019282294
23 0.67391350144502
24 -0.53911779987624
25 -0.041787272065098
26 -0.023205396112098
27 0.064992668177196
28 -0.031017967089488
29 -0.019983535836194
30 -0.012573160932829
31 0.36627700473808
32 -0.22241145437696
33 0.047506177686907
34 -0.025441062265491
35 0.033315189950132
36 0.36627700473808
37 -0.22241145437696
38 0.047506177686907
39 0.025441062265491
40 -0.033315189950132
 Sym=     11.2
 Ene=       1.4728
 Spin= Alpha
 Occup=    0.000000
1 0.010236650737580
2 -0.000410629643706
3 -0.21804752319768
4 -0.13269816580233
5 0.077950834982744
6 0.12113763701257
7 -0.097990433584909
8 -0.10220910082346
9 0.19479138940995
10 0.040863192340843
11 -0.042146417183248
12 0.001283224842405
13 0.054661448758591
14 -0.004008924569764
15 -0.096069301192667
16 -0.010236650737580
17 0.000410629643706
18 0.21804752319768
19 0.13269816580233
20 0.077950834982744
21 0.12113763701257