[Molden Format]
[Molpro variables]
_NUMVAR=  784.0000000000000    
_AVOGAD= 0.6022136736000000E+24
_BOLTZ= 0.1380658000000000E-22
_CLIGHT=  29979245800.00000    
_EV2006= 0.3674930886769165E-01
_EV= 0.3674932534394180E-01
_ENULL= 0.8854187817000000E-11
_KJOULE= 0.3808798324128737E-03
_KJOULE/MOL= 0.3808798324128737E-03
_CM= 0.4556335267302901E-05
_CM-1= 0.4556335267302901E-05
_DEB2SI= 0.3335641000000000E-29
_AMU2AU=  1822.888390000000    
_KCAL= 0.1593601117815568E-02
_KCAL/MOL= 0.1593601117815568E-02
_KELVIN2006= 0.3166828861084835E-05
_KELVIN= 0.3166814820820034E-05
_JOULE= 0.4359748200000000E-17
_HERTZ2006= 0.1519829850815779E-15
_HERTZ= 0.1519829846011223E-15
_HZ2006= 0.1519829850815779E-15
_HZ= 0.1519829846011223E-15
_JPCAL=  4.184000000000000    
_PLANCK= 0.6626075540000000E-33
_TOA2006= 0.5291772490000000    
_TOA= 0.5291772090000000    
_TOANG2006= 0.5291772490000000    
_TOANG= 0.5291772090000000    
_TORAD= 0.1745329251994330E-01
_TOCM=  219474.6306700000    
_TODEBYE=  2.541580000000000    
_TOEV2006=  27.21139610000000    
_TOE= 0.4803242000000000E-09
_TOEV=  27.21138390000000    
_TOHERTZ2006=  6579683899900000.    
_TOHERTZ=  6579683920700000.    
_TOHZ2006=  6579683899900000.    
_TOHZ=  6579683920700000.    
_TOK2006=  315773.3000000000    
_TOK=  315774.7000000000    
_TOKCAL=  627.5096000000000    
_TOKELVIN2006=  315773.3000000000    
_TOKELVIN=  315774.7000000000    
_TOKJ=  2625.500000000000    
_TOKJOULE=  2625.500000000000    
_TOKG= 0.1660565586000000E-26
_ANG2006=  1.889725988578923    
_ANG=  1.889726131421507    
_ANGSTROM2006=  1.889725988578923    
_ANGSTROM=  1.889726131421507    
_RPAREF=  0.000000000000000    
_RPADISS=  0.000000000000000    
_IGNORE_UNDEF=  2.000000000000000    
_STRICTCHECK=  0.000000000000000    
_SEW_ONEEL=  0.000000000000000    
_CPPDONE=FALSE
_DKROLL_DONE=  0.000000000000000    
_FOCKDONE=TRUE
_GRADONE=FALSE
_HESSDONE=FALSE
_INTDONE=TRUE
_SCFDONE=TRUE
_MODUL_BLOCK=FALSE
_MODUL_CUDA=FALSE
_MODUL_SLATER=FALSE
_MODUL_MRCC=FALSE
_MODUL_NBO6=FALSE
_MODUL_NECI=TRUE
_MODUL_AIMS=TRUE
_MRCC_EXEC=
_FITC_AO_SAVED=FALSE
_FITC_MO_SAVED=FALSE
_SHARED_FS=TRUE
_LSTYP=SEWARD
_INTYP=INTS
_GEOMTYP=ZMAT
_GRADTYP=ALASKA
_DIRECT=FALSE
_DKHO= -1.000000000000000    
_SYNCM=  0.000000000000000    
_BASIS=USERDEF
_ZORIENT=  1.000000000000000    
_NELEC=  16.00000000000000    
!SPIN=  0.000000000000000    
_QSDSTEP=  0.000000000000000    
_QSDIRC=  0.000000000000000    
_PROGRAM=HF-SCF
_CPUSTEP= 0.4999999999999999E-01
_SYSSTEP= 0.9999999999999981E-02
_WALLSTEP= 0.3600000000000000    
!DFSCF=  0.000000000000000    
!SCSGRD=  0.000000000000000    
_BASINP=  610.0000000000000    
_CPUTOT= 0.3200000000000000    
_CPUSORT= 0.4999999999999999E-01
_SYSSORT= 0.7000000000000001E-01
_WALLSORT= 0.1499999985098839    
_DFTEXFAC=  1.000000000000000    
_DMX=  0.000000000000000    
_DMY=  0.000000000000000    
_DMZ=  0.000000000000000    
_DMX_SCF=  0.000000000000000    
_DMY_SCF=  0.000000000000000    
_DMZ_SCF=  0.000000000000000    
_EHOMO=-0.3931176384602726    
_ELUMO= 0.1507684619211550    
_ENERGY= -110.0085066036361    
_ENUC=  32.90960542492468    
_EPS1= -15.62284562330192    
_EPS2=-0.5199415207180841    
_EPS3= -15.62132769571609    
_EPS4= 0.1507684619211550    
_GRADEXFAC=  9999.000000000000    
_GRADMETHOD=  1.000000000000000    
_NMRMETHOD=  0.000000000000000    
!GRID_FREEZE= -1.000000000000000    
_ITERATIONS=  9.000000000000000    
_LASTNELEC=  16.00000000000000    
_LASTSPIN=  0.000000000000000    
_LASTSYM=  1.000000000000000    
_MPP_PROG=  0.000000000000000    
_NPROC_MPP=  1.000000000000000    
_NPROC_MPPX=  1.000000000000000    
_NPROC_SMP=  16.00000000000000    
_NUMSTEP=  0.000000000000000    
_ORBITAL=  2100.200000000000    
_PI=  3.141592653589793    
_SEIG_MIN= 0.7442282617841975E-02
_SEWPROP=TRUE
_STATUS=  1.000000000000000    
_SYSTOT= 0.1400000000000000    
_VERSION=  2012001.000000000    
_WALLTOT=  2.190000000000000    
_DATE=24-Jan-19
_LASTORB=RHF
_MACHINE=Linux-4.9.0-8-amd64/nympha18.meta.zcu.cz(x86_64) (16 PROC) 64 bit serial version
_OUTPUT=/auto/brno2/home/masiz4am/git/UKRmol-in/tests/suite/C2h_target_HF3/molpro.xml
_PGROUP=C2h
_TIME=16:17:46
_LIBMOL=/afs/ics.muni.cz/software/molpro-2012.1/molprop_2012_1_Linux_x86_64_i8/lib/
!VIBCNT=  0.000000000000000    
!RGHFCNT=  0.000000000000000    
!SURFREC=  0.000000000000000    
!POLYREC=  0.000000000000000    
!DIPREC=  0.000000000000000    
!VSCFREC=  0.000000000000000    
!VCIREC=  0.000000000000000    
!PVCIREC=  0.000000000000000    
!VMP2REC=  0.000000000000000    
!VMCSCFREC=  0.000000000000000    
!VMRCIREC=  0.000000000000000    
!VIBINFO=  0.000000000000000    
!GAREC=  0.000000000000000    
!SCFORB=  21002.00000000000    
!NEWMOL= -1.000000000000000    
!NEWSYM= -1.000000000000000    
_SLFILES=slscratch
_NGSSTO=  9.000000000000000    
_SIN=SIN
_COS=COS
_TAN=TAN
_ACOS=ACOS
_ASIN=ASIN
_ATAN=ATAN
_COSH=COSH
_SINH=SINH
_TANH=TANH
_ABS=ABS
_MOD=MOD
_ERF=ERF
_REFC=REFC
_ERFC=ERFC
_HYPOT=HYPOT
_J0=J0
_J1=J1
_JN=JN
_GAMMA=GAMMA
_LGAMMA=LGAMMA
_Y0=Y0
_Y1=Y1
_YN=YN
_EXP=EXP
_LOG=LOG
_LOG10=LOG10
_SQRT=SQRT
_INT=INT
_NINT=NINT
_MAX=MAX
_MIN=MIN
_COSMO=  0.000000000000000    
_COSMOIT=  0.000000000000000    
_COSMOES=  0.000000000000000    
_COSMOEDS=  0.000000000000000    
_COSMOEC=  0.000000000000000    
_COSMOEDCORR=  0.000000000000000    
_FEPSI=  1.000000000000000    
_SL_IsMM=  0.000000000000000    
_SL_NSYM=  4.000000000000000    
_SL_System_BitSw=  0.000000000000000    
_SL_Unique_atoms=  0.000000000000000    
_SL_GRAD=  0.000000000000000    
_SL_MAXUPD_Hess=  5.000000000000000    
_SL_N_PRINT_COD=  5.000000000000000    
_SL_PRINT_CODES=  0.000000000000000    
_SL_BasType=  0.000000000000000    
_SL_Energy_Pred=  0.000000000000000    
_SL_New_Coords=  0.000000000000000    
_SL_Total_Nuclea=  0.000000000000000    
_SL_Highest_Mltp=  0.000000000000000    
_SL_Ref_Geom=  0.000000000000000    
_SL_Symmetry_ope=  1.000000000000000    
_SL_agrad=  0.000000000000000    
_SL_GrdMax=  0.000000000000000    
_SL_GrdNorm=  0.000000000000000    
_SL_GrdRMS=  0.000000000000000    
!LATTICE= -1.000000000000000    
!NEWLATTICE=  0.000000000000000    
!LATGRAD_VAR=FALSE
!SEW_LATTICE=  1.000000000000000    
!LOCAL=  0.000000000000000    
!SAVEDOM= -1.000000000000000    
!RESTDOM= -1.000000000000000    
!SAVEDOM_HF= -1.000000000000000    
!RESTDOM_HF= -1.000000000000000    
!HESSREC=  0.000000000000000    
!FREQREC=  0.000000000000000    
!NMODREC=  0.000000000000000    
!GTASKS=  0.000000000000000    
!HTASKS=  0.000000000000000    
!THRCHG= 0.1000000000000000    
!DEBUG= -1.000000000000000    
!CFIT_CPHF=  0.000000000000000    
!RDOMAUX_CPHF=  3.000000000000000    
!THRAO_CPHF= 0.1000000000000000E-09
!THRMO_CPHF= 0.1000000000000000E-08
!THROV_CPHF= 0.1000000000000000E-11
!THRSW_CPHF= 0.1000000000000000E-09
!THRPROD_CPHF= 0.1000000000000000E-08
!THRAOPR_CPHF= 0.1000000000000000E-11
!CFIT_SCFGRD=  0.000000000000000    
!RDOMAUX_SCFGRD=  5.000000000000000    
!THRAO_SCFGRD= 0.1000000000000000E-09
!THRMO_SCFGRD= 0.1000000000000000E-08
!THROV_SCFGRD= 0.1000000000000000E-11
!THRSW_SCFGRD= 0.1000000000000000E-09
!THRPROD_SCFGRD= 0.1000000000000000E-08
!THRAOPR_SCFGRD= 0.1000000000000000E-11
!LOCFIT_SCF=  0.000000000000000    
!LOCFIT_MP2= -1.000000000000000    
_RIDOM=  0.000000000000000    
!CC2_METHOD=  0.000000000000000    
_BASIS2006=FALSE
_SVDDEL= -1.000000000000000    
_SVDDELA= -1.000000000000000    
_SVDDELP= -1.000000000000000    
_SVDDELF= -1.000000000000000    
_SVDDELS= -1.000000000000000    
_SVDDEL_ABS= -1.000000000000000    
_SVDDELA_ABS= -1.000000000000000    
_SVDDELP_ABS= -1.000000000000000    
_SVDDELF_ABS= -1.000000000000000    
_SVDDELS_ABS= -1.000000000000000    
_MAXBASIS=  0.000000000000000    
!OPT_CONICAL=  0.000000000000000    
!CLEARSP_JGRID=  0.000000000000000    
_4EXT_NDISKS=  1.000000000000000    
!ZMP=  0.000000000000000    
_MAXIT_ZMP=  500.0000000000000    
_MAXDIS_ZMP=  100.0000000000000    
_ACCU_ZMP=  14.00000000000000    
_SHIFTA_ZMP= -100.0000000000000    
!EMBEDFLAG=  1.000000000000000    
!EMBED=FALSE
!EMBED_F12=FALSE
!EMBEDNUC=  0.000000000000000    
_EMBEDENERGY=  0.000000000000000    
_KSPACETIME=  0.000000000000000    
_RSPACETIME=  0.000000000000000    
!EMBED_DFC=FALSE
!NUM_VOIDS=  0.000000000000000    
_IBODY=  0.000000000000000    
_EMBE_TOTAL=  0.000000000000000    
_EMBE_HF=  0.000000000000000    
_EMBE_CORR=  0.000000000000000    
!EDFT=  0.000000000000000    
_IFASTLATGRAD=  0.000000000000000    
_SINDEX=  0.000000000000000    
GX1=  1.147819566000000    
GY1=  0.000000000000000    
GZ1=  0.000000000000000    
GX2=  1.722863184000000    
GY2=  1.840404140000000    
GZ2=  0.000000000000000    
GX3= -1.147819566000000    
GY3=  0.000000000000000    
GZ3=  0.000000000000000    
GX4= -1.722863184000000    
GY4= -1.840404140000000    
GZ4=  0.000000000000000    
[Atoms] Angs
N     1    7         0.6073999544        0.0000000000        0.0000000000
H     2    1         0.9116999312        0.9738999262        0.0000000000
N     3    7        -0.6073999544        0.0000000000        0.0000000000
H     4    1        -0.9116999312       -0.9738999262        0.0000000000
[GTO]
  1 0
 s    8  1.00
  0.9046000000D+04  0.6996174134D-03
  0.1357000000D+04  0.5386054630D-02
  0.3093000000D+03  0.2739102119D-01
  0.8773000000D+02  0.1031505920D+00
  0.2856000000D+02  0.2785706633D+00
  0.1021000000D+02  0.4482948495D+00
  0.3838000000D+01  0.2780859284D+00
  0.7466000000D+00  0.1543156123D-01
 s    8  1.00
  0.9046000000D+04 -0.3049900960D-03
  0.1357000000D+04 -0.2408026379D-02
  0.3093000000D+03 -0.1194444873D-01
  0.8773000000D+02 -0.4892599291D-01
  0.2856000000D+02 -0.1344727247D+00
  0.1021000000D+02 -0.3151125777D+00
  0.3838000000D+01 -0.2428578325D+00
  0.7466000000D+00  0.1094382207D+01
 s    1  1.00
  0.2248000000D+00  0.1000000000D+01
 p    3  1.00
  0.1355000000D+02  0.5890567677D-01
  0.2917000000D+01  0.3204611067D+00
  0.7973000000D+00  0.7530420618D+00
 p    1  1.00
  0.2185000000D+00  0.1000000000D+01
 d    1  1.00
  0.8170000000D+00  0.1000000000D+01
  
  3 0
 s    8  1.00
  0.9046000000D+04  0.6996174134D-03
  0.1357000000D+04  0.5386054630D-02
  0.3093000000D+03  0.2739102119D-01
  0.8773000000D+02  0.1031505920D+00
  0.2856000000D+02  0.2785706633D+00
  0.1021000000D+02  0.4482948495D+00
  0.3838000000D+01  0.2780859284D+00
  0.7466000000D+00  0.1543156123D-01
 s    8  1.00
  0.9046000000D+04 -0.3049900960D-03
  0.1357000000D+04 -0.2408026379D-02
  0.3093000000D+03 -0.1194444873D-01
  0.8773000000D+02 -0.4892599291D-01
  0.2856000000D+02 -0.1344727247D+00
  0.1021000000D+02 -0.3151125777D+00
  0.3838000000D+01 -0.2428578325D+00
  0.7466000000D+00  0.1094382207D+01
 s    1  1.00
  0.2248000000D+00  0.1000000000D+01
 p    3  1.00
  0.1355000000D+02  0.5890567677D-01
  0.2917000000D+01  0.3204611067D+00
  0.7973000000D+00  0.7530420618D+00
 p    1  1.00
  0.2185000000D+00  0.1000000000D+01
 d    1  1.00
  0.8170000000D+00  0.1000000000D+01
  
  2 0
 s    3  1.00
  0.1301000000D+02  0.3349872639D-01
  0.1962000000D+01  0.2348008012D+00
  0.4446000000D+00  0.8136829579D+00
 s    1  1.00
  0.1220000000D+00  0.1000000000D+01
 p    1  1.00
  0.7270000000D+00  0.1000000000D+01
  
  4 0
 s    3  1.00
  0.1301000000D+02  0.3349872639D-01
  0.1962000000D+01  0.2348008012D+00
  0.4446000000D+00  0.8136829579D+00
 s    1  1.00
  0.1220000000D+00  0.1000000000D+01
 p    1  1.00
  0.7270000000D+00  0.1000000000D+01
 
 
[MO]
 Sym=      1.1
 Ene=     -15.6228
 Spin= Alpha
 Occup=    2.000000
1 0.70788102110687
2 0.001289612464922
3 -0.002482851545160
4 -0.000967051180631
5 0.001282678061614
6 0.0
7 0.000502837269369
8 -0.000790048965507
9 0.0
10 -0.000129620103537
11 0.000301596043523
12 -0.000171975939986
13 0.000070161825202
14 0.0
15 0.0
16 0.70788102110687
17 0.001289612464922
18 -0.002482851545160
19 0.000967051180631
20 -0.001282678061614
21 0.0
22 -0.000502837269369
23 0.000790048965507
24 0.0
25 -0.000129620103537
26 0.000301596043523
27 -0.000171975939986
28 0.000070161825202
29 0.0
30 0.0
31 -0.000189522862913
32 0.000791960209470
33 0.000101996536763
34 0.000562245410073
35 0.0
36 -0.000189522862913
37 0.000791960209470
38 -0.000101996536763
39 -0.000562245410073
40 0.0
 Sym=      1.3
 Ene=     -15.6213
 Spin= Alpha
 Occup=    2.000000
1 0.70814011970789
2 0.001560005408978
3 -0.003957350390733
4 -0.001415087912739
5 0.001254622045541
6 0.0
7 0.001178487006348
8 -0.000320841600177
9 0.0
10 0.000673303318725
11 0.000066374668598
12 -0.000739677987323
13 0.000114460795957
14 0.0
15 0.0
16 -0.70814011970789
17 -0.001560005408978
18 0.003957350390733
19 -0.001415087912739
20 0.001254622045541
21 0.0
22 0.001178487006348
23 -0.000320841600177
24 0.0
25 -0.000673303318725
26 -0.000066374668598
27 0.000739677987323
28 -0.000114460795957
29 0.0
30 0.0
31 -0.000263697565422
32 0.000292293583979
33 0.000174985043014
34 0.000679196175559
35 0.0
36 0.000263697565422
37 -0.000292293583979
38 0.000174985043014
39 0.000679196175559
40 0.0
 Sym=      2.1
 Ene=      -1.3706
 Spin= Alpha
 Occup=    2.000000
1 -0.007602026193732
2 0.32023289079213
3 0.21186737152523
4 -0.16692153017349
5 0.023868960900885
6 0.0
7 -0.038080107930185
8 -0.008070565186109
9 0.0
10 0.023807501586513
11 -0.012627470272309
12 -0.011180031314204
13 -0.002314556940749
14 0.0
15 0.0
16 -0.007602026193732
17 0.32023289079213
18 0.21186737152523
19 0.16692153017349
20 -0.023868960900885
21 0.0
22 0.038080107930185
23 0.008070565186109
24 0.0
25 0.023807501586513
26 -0.012627470272309
27 -0.011180031314204
28 -0.002314556940749
29 0.0
30 0.0
31 0.099416049592603
32 -0.005727197215136
33 -0.007603863936027
34 -0.019512100218506
35 0.0
36 0.099416049592603
37 -0.005727197215136
38 0.007603863936027
39 0.019512100218506
40 0.0
 Sym=      2.3
 Ene=      -0.9333
 Spin= Alpha
 Occup=    2.000000
1 -0.001354566092843
2 0.25873600444711
3 0.23735799969320
4 0.12996095812240
5 0.15601304923761
6 0.0
7 0.060696495568797
8 0.039983860066656
9 0.0
10 -0.016658794088124
11 0.016456207485309
12 0.000202586602814
13 -0.004016287737830
14 0.0
15 0.0
16 0.001354566092843
17 -0.25873600444711
18 -0.23735799969320
19 0.12996095812240
20 0.15601304923761
21 0.0
22 0.060696495568797
23 0.039983860066656
24 0.0
25 0.016658794088124
26 -0.016456207485309
27 -0.000202586602814
28 0.004016287737830
29 0.0
30 0.0
31 0.24966218218072
32 0.029542135182564
33 -0.009953922163762
34 -0.032794196917347
35 0.0
36 -0.24966218218072
37 -0.029542135182564
38 -0.009953922163762
39 -0.032794196917347
40 0.0
 Sym=      3.1
 Ene=      -0.6694
 Spin= Alpha
 Occup=    2.000000
1 -0.004919772316511
2 0.028381412616105
3 0.084569980855834
4 0.38631978513337
5 0.13000171488958
6 0.0
7 0.16922620128868
8 0.042435539777743
9 0.0
10 -0.030378639958005
11 0.024948463788137
12 0.005430176169867
13 0.016569905542036
14 0.0
15 0.0
16 -0.004919772316511
17 0.028381412616105
18 0.084569980855834
19 -0.38631978513337
20 -0.13000171488958
21 0.0
22 -0.16922620128868
23 -0.042435539777743
24 0.0
25 -0.030378639958005
26 0.024948463788137
27 0.005430176169867
28 0.016569905542036
29 0.0
30 0.0
31 0.24653567955122
32 0.081856892664547
33 0.001660198656318
34 -0.022642456281350
35 0.0
36 0.24653567955122
37 0.081856892664547
38 -0.001660198656318
39 0.022642456281350
40 0.0
 Sym=      3.3
 Ene=      -0.6451
 Spin= Alpha
 Occup=    2.000000
1 -0.003086170249332
2 -0.17916909217475
3 -0.25411118333567
4 -0.11296514487133
5 0.33639147674201
6 0.0
7 -0.091745863620987
8 0.18990373701468
9 0.0
10 0.000478979362771
11 0.007934699825697
12 -0.008413679188469
13 -0.024974062262654
14 0.0
15 0.0
16 0.003086170249332
17 0.17916909217475
18 0.25411118333567
19 -0.11296514487133
20 0.33639147674201
21 0.0
22 -0.091745863620987
23 0.18990373701468
24 0.0
25 -0.000478979362771
26 -0.007934699825697
27 0.008413679188469
28 0.024974062262654
29 0.0
30 0.0
31 0.11912213907377
32 0.027202658043742
33 -0.010514513214712
34 -0.007343939185949
35 0.0
36 -0.11912213907377
37 -0.027202658043742
38 -0.010514513214712
39 -0.007343939185949
40 0.0
 Sym=      1.2
 Ene=      -0.5199
 Spin= Alpha
 Occup=    2.000000
1 0.0
2 0.0
3 0.0
4 0.0
5 0.0
6 0.40077527835127
7 0.0
8 0.0
9 0.29309170005371
10 0.0
11 0.0
12 0.0
13 0.0
14 -0.042452238314134
15 0.010098360266305
16 0.0
17 0.0
18 0.0
19 0.0
20 0.0
21 0.40077527835127
22 0.0
23 0.0
24 0.29309170005371
25 0.0
26 0.0
27 0.0
28 0.0
29 0.042452238314134
30 -0.010098360266305
31 0.0
32 0.0
33 0.0
34 0.0
35 0.013264192480929
36 0.0
37 0.0
38 0.0
39 0.0
40 0.013264192480929
 Sym=      4.1
 Ene=      -0.3931
 Spin= Alpha
 Occup=    2.000000
1 0.008139966160211
2 -0.087364037718241
3 -0.29662375403347
4 -0.21576020429410
5 0.35109957431964
6 0.0
7 -0.15661078361384
8 0.28785995182814
9 0.0
10 0.000947622809087
11 0.015890511187635
12 -0.016838133996722
13 0.006941165229824
14 0.0
15 0.0
16 0.008139966160211
17 -0.087364037718241
18 -0.29662375403347
19 0.21576020429410
20 -0.35109957431964
21 0.0
22 0.15661078361384
23 -0.28785995182814
24 0.0
25 0.000947622809087
26 0.015890511187635
27 -0.016838133996722
28 0.006941165229824
29 0.0
30 0.0
31 0.23473893478932
32 0.063706295778675
33 -0.011000514758360
34 -0.007927513582310
35 0.0
36 0.23473893478932
37 0.063706295778675
38 0.011000514758360
39 0.007927513582310
40 0.0
 Sym=      1.4
 Ene=       0.1508
 Spin= Alpha
 Occup=    0.000000
1 0.0
2 0.0
3 0.0
4 0.0
5 0.0
6 0.41205024850299
7 0.0
8 0.0
9 0.61614521778852
10 0.0
11 0.0
12 0.0
13 0.0
14 0.012005591581222
15 0.013944856772906
16 0.0
17 0.0
18 0.0
19 0.0
20 0.0
21 -0.41205024850299
22 0.0
23 0.0
24 -0.61614521778852
25 0.0
26 0.0
27 0.0
28 0.0
29 0.012005591581222
30 0.013944856772906
31 0.0
32 0.0
33 0.0
34 0.0
35 0.024261819198940
36 0.0
37 0.0
38 0.0
39 0.0
40 -0.024261819198940
 Sym=      4.3
 Ene=       0.2091
 Spin= Alpha
 Occup=    0.000000
1 0.022638965786333
2 -0.057939696738784
3 -0.60456138709573
4 -0.026573103732281
5 -0.16300901320188
6 0.0
7 -0.19131409521851
8 -0.40939299316230
9 0.0
10 0.019145092670709
11 -0.023781157129667
12 0.004636064458958
13 0.006413932357991
14 0.0
15 0.0
16 -0.022638965786333
17 0.057939696738784
18 0.60456138709573
19 -0.026573103732281
20 -0.16300901320188
21 0.0
22 -0.19131409521851
23 -0.40939299316230
24 0.0
25 -0.019145092670709
26 0.023781157129667
27 -0.004636064458958
28 -0.006413932357991
29 0.0
30 0.0
31 0.074372563569310
32 1.26725287391659
33 -0.001018614019071
34 -0.029644211592058
35 0.0
36 -0.074372563569310
37 -1.26725287391659
38 -0.001018614019071
39 -0.029644211592058
40 0.0
 Sym=      5.1
 Ene=       0.2125
 Spin= Alpha
 Occup=    0.000000
1 0.031216494740188
2 -0.050415273234214
3 -0.77799562816888
4 -0.087103585995502
5 -0.15375263449310
6 0.0
7 -0.18100133841405
8 -0.43712199325100
9 0.0
10 0.003012898284078
11 -0.013966983949919
12 0.010954085665841
13 -0.009689224392317
14 0.0
15 0.0
16 0.031216494740188
17 -0.050415273234214
18 -0.77799562816888
19 0.087103585995502
20 0.15375263449310
21 0.0
22 0.18100133841405
23 0.43712199325100
24 0.0
25 0.003012898284078
26 -0.013966983949919
27 0.010954085665841
28 -0.009689224392317
29 0.0
30 0.0
31 0.011041283134116
32 1.13091260085591
33 -0.012696913963076
34 -0.019369333093067
35 0.0
36 0.011041283134116
37 1.13091260085591
38 0.012696913963076
39 0.019369333093067
40 0.0
 Sym=      5.3
 Ene=       0.5602
 Spin= Alpha
 Occup=    0.000000
1 0.051660510858230
2 -0.084986123568502
3 -2.58456423104519
4 0.21593262730651
5 0.13984841122315
6 0.0
7 2.08596545607805
8 0.057576613316082
9 0.0
10 -0.015109914293642
11 -0.015661487718711
12 0.030771402012353
13 -0.025210686802919
14 0.0
15 0.0
16 -0.051660510858230
17 0.084986123568502
18 2.58456423104519
19 0.21593262730651
20 0.13984841122315
21 0.0
22 2.08596545607805
23 0.057576613316082
24 0.0
25 0.015109914293642
26 0.015661487718711
27 -0.030771402012353
28 0.025210686802919
29 0.0
30 0.0
31 -0.17936275140726
32 -0.14462052970944
33 -0.020347572088835
34 -0.045482612004613
35 0.0
36 0.17936275140726
37 0.14462052970944
38 -0.020347572088835
39 -0.045482612004613
40 0.0
 Sym=      6.3
 Ene=       0.7856
 Spin= Alpha
 Occup=    0.000000
1 -0.043048237193325
2 -0.25019980180022
3 -0.65480698984540
4 0.011400327443153
5 -0.13929112044239
6 0.0
7 0.68721218404117
8 0.033983592881851
9 0.0
10 -0.031223582264241
11 0.10366038794206
12 -0.072436805677819
13 0.10828770609074
14 0.0
15 0.0
16 0.043048237193325
17 0.25019980180022
18 0.65480698984540
19 0.011400327443153
20 -0.13929112044239
21 0.0
22 0.68721218404117
23 0.033983592881851
24 0.0
25 0.031223582264241
26 -0.10366038794206
27 0.072436805677819
28 -0.10828770609074
29 0.0
30 0.0
31 0.78726622924654
32 -0.81094519566137
33 0.11850879548921
34 0.18393787914381
35 0.0
36 -0.78726622924654
37 0.81094519566137
38 0.11850879548921
39 0.18393787914381
40 0.0
 Sym=      6.1
 Ene=       0.7944
 Spin= Alpha
 Occup=    0.000000
1 -0.086599901282271
2 -0.20157682598986
3 -0.043712875991696
4 0.31790976658659
5 -0.12930545669552
6 0.0
7 -0.62264832469848
8 -0.51395418581638
9 0.0
10 -0.072949887257776
11 0.10128810052518
12 -0.028338213267402
13 0.011274601440389
14 0.0
15 0.0
16 -0.086599901282271
17 -0.20157682598986
18 -0.043712875991696
19 -0.31790976658659
20 0.12930545669552
21 0.0
22 0.62264832469848
23 0.51395418581638
24 0.0
25 -0.072949887257776
26 0.10128810052518
27 -0.028338213267402
28 0.011274601440389
29 0.0
30 0.0
31 0.65974912530207
32 -0.33495329236846
33 -0.064369696484751
34 0.090366364155291
35 0.0
36 0.65974912530207
37 -0.33495329236846
38 0.064369696484751
39 -0.090366364155291
40 0.0
 Sym=      7.1
 Ene=       0.8988
 Spin= Alpha
 Occup=    0.000000
1 -0.058770467621238
2 -0.11012549121427
3 -0.26851844225361
4 0.23631383954250
5 0.50108165007957
6 0.0
7 -0.37154861002325
8 -0.61518386104953
9 0.0
10 -0.017616676549708
11 -0.078743058059513
12 0.096359734609221
13 -0.007757193652060
14 0.0
15 0.0
16 -0.058770467621238
17 -0.11012549121427
18 -0.26851844225361
19 -0.23631383954250
20 -0.50108165007957
21 0.0
22 0.37154861002325
23 0.61518386104953
24 0.0
25 -0.017616676549708
26 -0.078743058059513
27 0.096359734609221
28 -0.007757193652060
29 0.0
30 0.0
31 -0.30737976593885
32 0.49460805863951
33 -0.14008258528388
34 -0.22059809354591
35 0.0
36 -0.30737976593885
37 0.49460805863951
38 0.14008258528388
39 0.22059809354591
40 0.0
 Sym=      2.2
 Ene=       0.9352
 Spin= Alpha
 Occup=    0.000000
1 0.0
2 0.0
3 0.0
4 0.0
5 0.0
6 -0.68507657741832
7 0.0
8 0.0
9 0.61364336068700
10 0.0
11 0.0
12 0.0
13 0.0
14 0.099637574607628
15 0.000491006866822
16 0.0
17 0.0
18 0.0
19 0.0
20 0.0
21 -0.68507657741832
22 0.0
23 0.0
24 0.61364336068700
25 0.0
26 0.0
27 0.0
28 0.0
29 -0.099637574607628
30 -0.000491006866822
31 0.0
32 0.0
33 0.0
34 0.0
35 0.007778370136911
36 0.0
37 0.0
38 0.0
39 0.0
40 0.007778370136911
 Sym=      7.3
 Ene=       0.9811
 Spin= Alpha
 Occup=    0.000000
1 0.011768060140008
2 0.030415710965527
3 0.77640555322181
4 0.53442094160732
5 -0.42903639003209
6 0.0
7 -0.58106309812333
8 0.67378183329127
9 0.0
10 0.12703306428316
11 -0.052972156412879
12 -0.074060907870280
13 0.072348436487419
14 0.0
15 0.0
16 -0.011768060140008
17 -0.030415710965527
18 -0.77640555322181
19 0.53442094160732
20 -0.42903639003209
21 0.0
22 -0.58106309812333
23 0.67378183329127
24 0.0
25 -0.12703306428316
26 0.052972156412879
27 0.074060907870280
28 -0.072348436487419
29 0.0
30 0.0
31 -0.24540802229187
32 -0.27763058179454
33 0.090606237601239
34 0.073272901988350
35 0.0
36 0.24540802229187
37 0.27763058179454
38 0.090606237601239
39 0.073272901988350
40 0.0
 Sym=      8.1
 Ene=       1.0182
 Spin= Alpha
 Occup=    0.000000
1 0.012656968213431
2 0.11553064459771
3 -0.093775905391960
4 0.38138355495939
5 -0.31379381779977
6 0.0
7 -0.50364550868723
8 1.13422078155990
9 0.0
10 -0.042468095135076
11 -0.062749421490012
12 0.10521751662509
13 -0.032109564011673
14 0.0
15 0.0
16 0.012656968213431
17 0.11553064459771
18 -0.093775905391960
19 -0.38138355495939
20 0.31379381779977
21 0.0
22 0.50364550868723
23 -1.13422078155990
24 0.0
25 -0.042468095135076
26 -0.062749421490012
27 0.10521751662509
28 -0.032109564011673
29 0.0
30 0.0
31 -0.59137146661698
32 0.18601730464414
33 0.11761604986473
34 -0.020989272939950
35 0.0
36 -0.59137146661698
37 0.18601730464414
38 -0.11761604986473
39 0.020989272939950
40 0.0
 Sym=      2.4
 Ene=       1.0639
 Spin= Alpha
 Occup=    0.000000
1 0.0
2 0.0
3 0.0
4 0.0
5 0.0
6 -0.73625499544850
7 0.0
8 0.0
9 1.08508677470257
10 0.0
11 0.0
12 0.0
13 0.0
14 -0.034673522301144
15 -0.005681229953097
16 0.0
17 0.0
18 0.0
19 0.0
20 0.0
21 0.73625499544850
22 0.0
23 0.0
24 -1.08508677470257
25 0.0
26 0.0
27 0.0
28 0.0
29 -0.034673522301144
30 -0.005681229953097
31 0.0
32 0.0
33 0.0
34 0.0
35 -0.029071647356220
36 0.0
37 0.0
38 0.0
39 0.0
40 0.029071647356220
 Sym=      8.3
 Ene=       1.1389
 Spin= Alpha
 Occup=    0.000000
1 -0.017494764279158
2 -0.000082330001447
3 -0.69598320218883
4 -0.46659057438769
5 -0.41238767101150
6 0.0
7 1.42100944592133
8 0.79776740905281
9 0.0
10 -0.15927036434640
11 0.091475355148606
12 0.067795009197792
13 -0.006620205734632
14 0.0
15 0.0
16 0.017494764279158
17 0.000082330001447
18 0.69598320218883
19 -0.46659057438769
20 -0.41238767101150
21 0.0
22 1.42100944592133
23 0.79776740905281
24 0.0
25 0.15927036434640
26 -0.091475355148606
27 -0.067795009197792
28 0.006620205734632
29 0.0
30 0.0
31 -0.30590521635510
32 -0.74358133231200
33 -0.13852621370773
34 0.23569049055503
35 0.0
36 0.30590521635510
37 0.74358133231200
38 -0.13852621370773
39 0.23569049055503
40 0.0
 Sym=      9.1
 Ene=       1.2833
 Spin= Alpha
 Occup=    0.000000
1 -0.50877290396240
2 -1.14123368657490
3 1.72325305226095
4 -0.12485324497526
5 -0.017994545617306
6 0.0
7 0.25651925527764
8 0.72299545371874
9 0.0
10 -0.12231144837273
11 -0.012190651503940
12 0.13450209987667
13 0.021284555973552
14 0.0
15 0.0
16 -0.50877290396240
17 -1.14123368657490
18 1.72325305226095
19 0.12485324497526
20 0.017994545617306
21 0.0
22 -0.25651925527764
23 -0.72299545371874
24 0.0
25 -0.12231144837273
26 -0.012190651503940
27 0.13450209987667
28 0.021284555973552
29 0.0
30 0.0
31 -0.34562851968140
32 -0.71611542357937
33 0.026815969255073
34 0.18164103053723
35 0.0
36 -0.34562851968140
37 -0.71611542357937
38 -0.026815969255073
39 -0.18164103053723
40 0.0
 Sym=      3.4
 Ene=       1.4175
 Spin= Alpha
 Occup=    0.000000
1 0.0
2 0.0
3 0.0
4 0.0
5 0.0
6 -0.057026216022992
7 0.0
8 0.0
9 -0.30227179953961
10 0.0
11 0.0
12 0.0
13 0.0
14 -0.005152272182376
15 0.30542561922891
16 0.0
17 0.0
18 0.0
19 0.0
20 0.0
21 0.057026216022992
22 0.0
23 0.0
24 0.30227179953961
25 0.0
26 0.0
27 0.0
28 0.0
29 -0.005152272182376
30 0.30542561922891
31 0.0
32 0.0
33 0.0
34 0.0
35 0.55506011492185
36 0.0
37 0.0
38 0.0
39 0.0
40 -0.55506011492185
 Sym=      9.3
 Ene=       1.4717
 Spin= Alpha
 Occup=    0.000000
1 0.27938400909114
2 0.64871450907868
3 -1.96505898606271
4 -0.29995465531738
5 -0.071536065214378
6 0.0
7 0.91534486293070
8 0.19335056528803
9 0.0
10 -0.099982009184609
11 0.008344489829847
12 0.091637519354762
13 0.24579788856743
14 0.0
15 0.0
16 -0.27938400909114
17 -0.64871450907868
18 1.96505898606271
19 -0.29995465531738
20 -0.071536065214378
21 0.0
22 0.91534486293070
23 0.19335056528803
24 0.0
25 0.099982009184609
26 -0.008344489829847
27 -0.091637519354762
28 -0.24579788856743
29 0.0
30 0.0
31 -0.051116543959211
32 -0.022697016507358
33 0.35951476731687
34 -0.24176155298012
35 0.0
36 0.051116543959211
37 0.022697016507358
38 0.35951476731687
39 -0.24176155298012
40 0.0
 Sym=      3.2
 Ene=       1.4966
 Spin= Alpha
 Occup=    0.000000
1 0.0
2 0.0
3 0.0
4 0.0
5 0.0
6 0.062463030639517
7 0.0
8 0.0
9 -0.20650853127282
10 0.0
11 0.0
12 0.0
13 0.0
14 0.14060496566889
15 0.16922694086224
16 0.0
17 0.0
18 0.0
19 0.0
20 0.0
21 0.062463030639517
22 0.0
23 0.0
24 -0.20650853127282
25 0.0
26 0.0
27 0.0
28 0.0
29 -0.14060496566889
30 -0.16922694086224
31 0.0
32 0.0
33 0.0
34 0.0
35 0.62707089447084
36 0.0
37 0.0
38 0.0
39 0.0
40 0.62707089447084
 Sym=     10.3
 Ene=       1.6753
 Spin= Alpha
 Occup=    0.000000
1 -0.58636185950939
2 -1.20069535210770
3 4.86651597373038
4 -0.096524736440930
5 0.084497074300491
6 0.0
7 -1.98538716970998
8 0.44323594687580
9 0.0
10 0.057572104710755
11 -0.16740823942106
12 0.10983613471030
13 0.13019409158412
14 0.0
15 0.0
16 0.58636185950939
17 1.20069535210770
18 -4.86651597373038
19 -0.096524736440930
20 0.084497074300491
21 0.0
22 -1.98538716970998
23 0.44323594687580
24 0.0
25 -0.057572104710755
26 0.16740823942106
27 -0.10983613471030
28 -0.13019409158412
29 0.0
30 0.0
31 -0.57886275671246
32 -0.24541724838658
33 0.36736796804823
34 0.073069719947238
35 0.0
36 0.57886275671246
37 0.24541724838658
38 0.36736796804823
39 0.073069719947238
40 0.0
 Sym=     10.1
 Ene=       1.8092
 Spin= Alpha
 Occup=    0.000000
1 -0.027779326870139
2 -0.075716614917852
3 -0.31566428768112
4 0.015501722937324
5 0.14198219962588
6 0.0
7 -0.48635915593713
8 -0.76437904819920
9 0.0
10 -0.062115481730983
11 -0.076303615301039
12 0.13841909703202
13 0.096239953016128
14 0.0
15 0.0
16 -0.027779326870139
17 -0.075716614917852
18 -0.31566428768112
19 -0.015501722937324
20 -0.14198219962588
21 0.0
22 0.48635915593713
23 0.76437904819920
24 0.0
25 -0.062115481730983
26 -0.076303615301039
27 0.13841909703202
28 0.096239953016128
29 0.0
30 0.0
31 0.41133781964173
32 0.088492315444557
33 0.69792933837074
34 -0.24491743977102
35 0.0
36 0.41133781964173
37 0.088492315444557
38 -0.69792933837074
39 0.24491743977102
40 0.0
 Sym=      4.2
 Ene=       1.8577
 Spin= Alpha
 Occup=    0.000000
1 0.0
2 0.0
3 0.0
4 0.0
5 0.0
6 0.22312776743005
7 0.0
8 0.0
9 0.022117384129092
10 0.0
11 0.0
12 0.0
13 0.0
14 0.58269650823155
15 -0.12957377180713
16 0.0
17 0.0
18 0.0
19 0.0
20 0.0
21 0.22312776743005
22 0.0
23 0.0
24 0.022117384129092
25 0.0
26 0.0
27 0.0
28 0.0
29 -0.58269650823155
30 0.12957377180713
31 0.0
32 0.0
33 0.0
34 0.0
35 -0.19261207263159
36 0.0
37 0.0
38 0.0
39 0.0
40 -0.19261207263159