[Molden Format]
[Molpro variables]
_NUMVAR=  790.0000000000000    
_AVOGAD= 0.6022136736000000E+24
_BOLTZ= 0.1380658000000000E-22
_CLIGHT=  29979245800.00000    
_EV2006= 0.3674930886769165E-01
_EV= 0.3674932534394180E-01
_ENULL= 0.8854187817000000E-11
_KJOULE= 0.3808798324128737E-03
_KJOULE/MOL= 0.3808798324128737E-03
_CM= 0.4556335267302901E-05
_CM-1= 0.4556335267302901E-05
_DEB2SI= 0.3335641000000000E-29
_AMU2AU=  1822.888390000000    
_KCAL= 0.1593601117815568E-02
_KCAL/MOL= 0.1593601117815568E-02
_KELVIN2006= 0.3166828861084835E-05
_KELVIN= 0.3166814820820034E-05
_JOULE= 0.4359748200000000E-17
_HERTZ2006= 0.1519829850815779E-15
_HERTZ= 0.1519829846011223E-15
_HZ2006= 0.1519829850815779E-15
_HZ= 0.1519829846011223E-15
_JPCAL=  4.184000000000000    
_PLANCK= 0.6626075540000000E-33
_TOA2006= 0.5291772490000000    
_TOA= 0.5291772090000000    
_TOANG2006= 0.5291772490000000    
_TOANG= 0.5291772090000000    
_TORAD= 0.1745329251994330E-01
_TOCM=  219474.6306700000    
_TODEBYE=  2.541580000000000    
_TOEV2006=  27.21139610000000    
_TOE= 0.4803242000000000E-09
_TOEV=  27.21138390000000    
_TOHERTZ2006=  6579683899900000.    
_TOHERTZ=  6579683920700000.    
_TOHZ2006=  6579683899900000.    
_TOHZ=  6579683920700000.    
_TOK2006=  315773.3000000000    
_TOK=  315774.7000000000    
_TOKCAL=  627.5096000000000    
_TOKELVIN2006=  315773.3000000000    
_TOKELVIN=  315774.7000000000    
_TOKJ=  2625.500000000000    
_TOKJOULE=  2625.500000000000    
_TOKG= 0.1660565586000000E-26
_ANG2006=  1.889725988578923    
_ANG=  1.889726131421507    
_ANGSTROM2006=  1.889725988578923    
_ANGSTROM=  1.889726131421507    
_RPAREF=  0.000000000000000    
_RPADISS=  0.000000000000000    
_IGNORE_UNDEF=  2.000000000000000    
_STRICTCHECK=  0.000000000000000    
_SEW_ONEEL=  0.000000000000000    
_CPPDONE=FALSE
_DKROLL_DONE=  0.000000000000000    
_FOCKDONE=TRUE
_GRADONE=FALSE
_HESSDONE=FALSE
_INTDONE=TRUE
_SCFDONE=TRUE
_MODUL_BLOCK=FALSE
_MODUL_CUDA=FALSE
_MODUL_SLATER=FALSE
_MODUL_MRCC=FALSE
_MODUL_NBO6=FALSE
_MODUL_NECI=TRUE
_MODUL_AIMS=TRUE
_MRCC_EXEC=
_FITC_AO_SAVED=FALSE
_FITC_MO_SAVED=FALSE
_SHARED_FS=TRUE
_LSTYP=SEWARD
_INTYP=INTS
_GEOMTYP=ZMAT
_GRADTYP=ALASKA
_DIRECT=FALSE
_DKHO= -1.000000000000000    
_SYNCM=  0.000000000000000    
_BASIS=USERDEF
_ZORIENT=  1.000000000000000    
_NELEC=  16.00000000000000    
!SPIN=  0.000000000000000    
_QSDSTEP=  0.000000000000000    
_QSDIRC=  0.000000000000000    
_PROGRAM=MATROP
_CPUSTEP=  0.000000000000000    
_SYSSTEP= 0.1000000000000001E-01
_WALLSTEP= 0.1800000000000000    
!DFSCF=  0.000000000000000    
!SCSGRD=  0.000000000000000    
_BASINP=  610.0000000000000    
_CPUTOT=  3.450000000000000    
_DFTEXFAC=  1.000000000000000    
_DMX=  0.000000000000000    
_DMY=  0.000000000000000    
_DMZ=  0.000000000000000    
_DMX_SCF=  0.000000000000000    
_DMY_SCF=  0.000000000000000    
_DMZ_SCF=  0.000000000000000    
_EHOMO=-0.3931176384653584    
_ELUMO= 0.1507684619222702    
_ENUC=  32.90960542492468    
_EPS1= -15.67674375027164    
_EPS2=-0.5571906749733677    
_EPS3= -15.67542446660462    
_EPS4=-0.5304256059946354E-01
_GRADEXFAC=  9999.000000000000    
_GRADMETHOD=TRUE
_NMRMETHOD=  0.000000000000000    
!GRID_FREEZE= -1.000000000000000    
_ITERATIONS=  0.000000000000000    
_LASTNELEC=  8.000000000000000    
_LASTSPIN=  2.000000000000000    
_LASTSYM=  1.000000000000000    
_MPP_PROG=  0.000000000000000    
_NPROC_MPP=  1.000000000000000    
_NPROC_MPPX=  1.000000000000000    
_NPROC_SMP=  16.00000000000000    
_NUMSTEP=  0.000000000000000    
_ORBITAL=  2141.200000000000    
_PI=  3.141592653589793    
_SEIG_MIN= 0.7442282617842138E-02
_SEWPROP=TRUE
_STATUS=  0.000000000000000    
_SYSTOT=  1.740000000000000    
_VERSION=  2012001.000000000    
_WALLTOT=  29.69000000000000    
_DATE=24-Jan-19
_LASTORB=MCSCF
_MACHINE=Linux-4.9.0-8-amd64/nympha18.meta.zcu.cz(x86_64) (16 PROC) 64 bit serial version
_OUTPUT=/auto/brno2/home/masiz4am/git/UKRmol-in/tests/suite/C2h_target_CAS2/molpro.xml
_PGROUP=C2h
_TIME=16:35:05
_LIBMOL=/afs/ics.muni.cz/software/molpro-2012.1/molprop_2012_1_Linux_x86_64_i8/lib/
!VIBCNT=  0.000000000000000    
!RGHFCNT=  0.000000000000000    
!SURFREC=  0.000000000000000    
!POLYREC=  0.000000000000000    
!DIPREC=  0.000000000000000    
!VSCFREC=  0.000000000000000    
!VCIREC=  0.000000000000000    
!PVCIREC=  0.000000000000000    
!VMP2REC=  0.000000000000000    
!VMCSCFREC=  0.000000000000000    
!VMRCIREC=  0.000000000000000    
!VIBINFO=  0.000000000000000    
!GAREC=  0.000000000000000    
!SCFORB=  21002.00000000000    
!MCORB=  21412.00000000000    
!NEWMOL= -1.000000000000000    
!NEWSYM= -1.000000000000000    
_SLFILES=slscratch
_NGSSTO=  9.000000000000000    
_SIN=SIN
_COS=COS
_TAN=TAN
_ACOS=ACOS
_ASIN=ASIN
_ATAN=ATAN
_COSH=COSH
_SINH=SINH
_TANH=TANH
_ABS=ABS
_MOD=MOD
_ERF=ERF
_REFC=REFC
_ERFC=ERFC
_HYPOT=HYPOT
_J0=J0
_J1=J1
_JN=JN
_GAMMA=GAMMA
_LGAMMA=LGAMMA
_Y0=Y0
_Y1=Y1
_YN=YN
_EXP=EXP
_LOG=LOG
_LOG10=LOG10
_SQRT=SQRT
_INT=INT
_NINT=NINT
_MAX=MAX
_MIN=MIN
_COSMO=  0.000000000000000    
_COSMOIT=  0.000000000000000    
_COSMOES=  0.000000000000000    
_COSMOEDS=  0.000000000000000    
_COSMOEC=  0.000000000000000    
_COSMOEDCORR=  0.000000000000000    
_FEPSI=  1.000000000000000    
_SL_IsMM=  0.000000000000000    
_SL_NSYM=  4.000000000000000    
_SL_System_BitSw=  0.000000000000000    
_SL_Unique_atoms=  0.000000000000000    
_SL_GRAD=  0.000000000000000    
_SL_MAXUPD_Hess=  5.000000000000000    
_SL_N_PRINT_COD=  5.000000000000000    
_SL_PRINT_CODES=  0.000000000000000    
_SL_BasType=  0.000000000000000    
_SL_Energy_Pred=  0.000000000000000    
_SL_New_Coords=  0.000000000000000    
_SL_Total_Nuclea=  0.000000000000000    
_SL_Highest_Mltp=  0.000000000000000    
_SL_Ref_Geom=  0.000000000000000    
_SL_Symmetry_ope=  1.000000000000000    
_SL_agrad=  0.000000000000000    
_SL_GrdMax=  0.000000000000000    
_SL_GrdNorm=  0.000000000000000    
_SL_GrdRMS=  0.000000000000000    
!LATTICE= -1.000000000000000    
!NEWLATTICE=  0.000000000000000    
!LATGRAD_VAR=FALSE
!SEW_LATTICE=  1.000000000000000    
!LOCAL=  0.000000000000000    
!SAVEDOM= -1.000000000000000    
!RESTDOM= -1.000000000000000    
!SAVEDOM_HF= -1.000000000000000    
!RESTDOM_HF= -1.000000000000000    
!HESSREC=  0.000000000000000    
!FREQREC=  0.000000000000000    
!NMODREC=  0.000000000000000    
!GTASKS=  0.000000000000000    
!HTASKS=  0.000000000000000    
!THRCHG= 0.1000000000000000    
!DEBUG= -1.000000000000000    
!CFIT_CPHF=  0.000000000000000    
!RDOMAUX_CPHF=  3.000000000000000    
!THRAO_CPHF= 0.1000000000000000E-09
!THRMO_CPHF= 0.1000000000000000E-08
!THROV_CPHF= 0.1000000000000000E-11
!THRSW_CPHF= 0.1000000000000000E-09
!THRPROD_CPHF= 0.1000000000000000E-08
!THRAOPR_CPHF= 0.1000000000000000E-11
!CFIT_SCFGRD=  0.000000000000000    
!RDOMAUX_SCFGRD=  5.000000000000000    
!THRAO_SCFGRD= 0.1000000000000000E-09
!THRMO_SCFGRD= 0.1000000000000000E-08
!THROV_SCFGRD= 0.1000000000000000E-11
!THRSW_SCFGRD= 0.1000000000000000E-09
!THRPROD_SCFGRD= 0.1000000000000000E-08
!THRAOPR_SCFGRD= 0.1000000000000000E-11
!LOCFIT_SCF=  0.000000000000000    
!LOCFIT_MP2= -1.000000000000000    
_RIDOM=  0.000000000000000    
!CC2_METHOD=  0.000000000000000    
_BASIS2006=FALSE
_SVDDEL= -1.000000000000000    
_SVDDELA= -1.000000000000000    
_SVDDELP= -1.000000000000000    
_SVDDELF= -1.000000000000000    
_SVDDELS= -1.000000000000000    
_SVDDEL_ABS= -1.000000000000000    
_SVDDELA_ABS= -1.000000000000000    
_SVDDELP_ABS= -1.000000000000000    
_SVDDELF_ABS= -1.000000000000000    
_SVDDELS_ABS= -1.000000000000000    
_MAXBASIS=  0.000000000000000    
!OPT_CONICAL=  0.000000000000000    
!CLEARSP_JGRID=  0.000000000000000    
_4EXT_NDISKS=  1.000000000000000    
!ZMP=  0.000000000000000    
_MAXIT_ZMP=  500.0000000000000    
_MAXDIS_ZMP=  100.0000000000000    
_ACCU_ZMP=  14.00000000000000    
_SHIFTA_ZMP= -100.0000000000000    
!EMBEDFLAG=  1.000000000000000    
!EMBED=FALSE
!EMBED_F12=FALSE
!EMBEDNUC=  0.000000000000000    
_EMBEDENERGY=  0.000000000000000    
_KSPACETIME=  0.000000000000000    
_RSPACETIME=  0.000000000000000    
!EMBED_DFC=FALSE
!NUM_VOIDS=  0.000000000000000    
_IBODY=  0.000000000000000    
_EMBE_TOTAL=  0.000000000000000    
_EMBE_HF=  0.000000000000000    
_EMBE_CORR=  0.000000000000000    
!EDFT=  0.000000000000000    
_IFASTLATGRAD=  0.000000000000000    
_SINDEX=  0.000000000000000    
M_NAME=CASSCF(8,8)
M_CLOSED=  2.000000000000000    
M_OCC=  5.000000000000000    
GX1=  1.147819566000000    
GY1=  0.000000000000000    
GZ1=  0.000000000000000    
GX2=  1.722863184000000    
GY2=  0.000000000000000    
GZ2=  1.840404140000000    
GX3= -1.147819566000000    
GY3=  0.000000000000000    
GZ3=  0.000000000000000    
GX4= -1.722863184000000    
GY4=  0.000000000000000    
GZ4= -1.840404140000000    
_TRDMX=  0.000000000000000    
_TRDMY=  0.000000000000000    
_TRDMZ=  0.000000000000000    
[Atoms] Angs
N     1    7         0.6073999544        0.0000000000        0.0000000000
H     2    1         0.9116999312        0.0000000000        0.9738999262
N     3    7        -0.6073999544        0.0000000000        0.0000000000
H     4    1        -0.9116999312        0.0000000000       -0.9738999262
[GTO]
  1 0
 s    8  1.00
  0.9046000000D+04  0.6996174134D-03
  0.1357000000D+04  0.5386054630D-02
  0.3093000000D+03  0.2739102119D-01
  0.8773000000D+02  0.1031505920D+00
  0.2856000000D+02  0.2785706633D+00
  0.1021000000D+02  0.4482948495D+00
  0.3838000000D+01  0.2780859284D+00
  0.7466000000D+00  0.1543156123D-01
 s    8  1.00
  0.9046000000D+04 -0.3049900960D-03
  0.1357000000D+04 -0.2408026379D-02
  0.3093000000D+03 -0.1194444873D-01
  0.8773000000D+02 -0.4892599291D-01
  0.2856000000D+02 -0.1344727247D+00
  0.1021000000D+02 -0.3151125777D+00
  0.3838000000D+01 -0.2428578325D+00
  0.7466000000D+00  0.1094382207D+01
 s    1  1.00
  0.2248000000D+00  0.1000000000D+01
 p    3  1.00
  0.1355000000D+02  0.5890567677D-01
  0.2917000000D+01  0.3204611067D+00
  0.7973000000D+00  0.7530420618D+00
 p    1  1.00
  0.2185000000D+00  0.1000000000D+01
 d    1  1.00
  0.8170000000D+00  0.1000000000D+01
  
  3 0
 s    8  1.00
  0.9046000000D+04  0.6996174134D-03
  0.1357000000D+04  0.5386054630D-02
  0.3093000000D+03  0.2739102119D-01
  0.8773000000D+02  0.1031505920D+00
  0.2856000000D+02  0.2785706633D+00
  0.1021000000D+02  0.4482948495D+00
  0.3838000000D+01  0.2780859284D+00
  0.7466000000D+00  0.1543156123D-01
 s    8  1.00
  0.9046000000D+04 -0.3049900960D-03
  0.1357000000D+04 -0.2408026379D-02
  0.3093000000D+03 -0.1194444873D-01
  0.8773000000D+02 -0.4892599291D-01
  0.2856000000D+02 -0.1344727247D+00
  0.1021000000D+02 -0.3151125777D+00
  0.3838000000D+01 -0.2428578325D+00
  0.7466000000D+00  0.1094382207D+01
 s    1  1.00
  0.2248000000D+00  0.1000000000D+01
 p    3  1.00
  0.1355000000D+02  0.5890567677D-01
  0.2917000000D+01  0.3204611067D+00
  0.7973000000D+00  0.7530420618D+00
 p    1  1.00
  0.2185000000D+00  0.1000000000D+01
 d    1  1.00
  0.8170000000D+00  0.1000000000D+01
  
  2 0
 s    3  1.00
  0.1301000000D+02  0.3349872639D-01
  0.1962000000D+01  0.2348008012D+00
  0.4446000000D+00  0.8136829579D+00
 s    1  1.00
  0.1220000000D+00  0.1000000000D+01
 p    1  1.00
  0.7270000000D+00  0.1000000000D+01
  
  4 0
 s    3  1.00
  0.1301000000D+02  0.3349872639D-01
  0.1962000000D+01  0.2348008012D+00
  0.4446000000D+00  0.8136829579D+00
 s    1  1.00
  0.1220000000D+00  0.1000000000D+01
 p    1  1.00
  0.7270000000D+00  0.1000000000D+01
 
 
[MO]
 Sym=      1.1
 Ene=     -15.6767
 Spin= Alpha
 Occup=    2.000000
1 0.70796356731610
2 0.001679982706683
3 -0.002672430455432
4 -0.001319969904499
5 0.0
6 0.000651601692995
7 0.000333040333396
8 0.0
9 -0.000712059220004
10 -0.000107944527736
11 -0.000039540974851
12 0.000147485502587
13 0.0
14 0.000168646965821
15 0.0
16 0.70796356731610
17 0.001679982706683
18 -0.002672430455432
19 0.001319969904499
20 0.0
21 -0.000651601692995
22 -0.000333040333396
23 0.0
24 0.000712059220004
25 -0.000107944527736
26 -0.000039540974851
27 0.000147485502587
28 0.0
29 0.000168646965821
30 0.0
31 -0.000254773537563
32 0.000754963107853
33 -0.000003945240725
34 0.0
35 0.000423026645146
36 -0.000254773537563
37 0.000754963107853
38 0.000003945240725
39 0.0
40 -0.000423026645146
 Sym=      1.3
 Ene=     -15.6754
 Spin= Alpha
 Occup=    2.000000
1 0.70821903175516
2 0.001791855751588
3 -0.004557622331149
4 -0.001357511953074
5 0.0
6 0.000778193545735
7 0.001358416240668
8 0.0
9 -0.000246220736987
10 0.000617024817195
11 -0.000514983791150
12 -0.000102041026045
13 0.0
14 0.000120966264399
15 0.0
16 -0.70821903175516
17 -0.001791855751588
18 0.004557622331149
19 -0.001357511953074
20 0.0
21 0.000778193545735
22 0.001358416240668
23 0.0
24 -0.000246220736987
25 -0.000617024817195
26 0.000514983791150
27 0.000102041026045
28 0.0
29 -0.000120966264399
30 0.0
31 -0.000127892031800
32 0.000246971352784
33 0.000129348797232
34 0.0
35 0.000504244618570
36 0.000127892031800
37 -0.000246971352784
38 0.000129348797232
39 0.0
40 0.000504244618570
 Sym=      2.1
 Ene=      -1.1717
 Spin= Alpha
 Occup=    2.000000
1 -0.008223189471411
2 0.27640447919129
3 0.20907334258793
4 0.079304298360947
5 0.0
6 0.10862811031388
7 0.059740707032069
8 0.0
9 0.027144566286353
10 0.002703281775396
11 -0.006566622367805
12 0.003863340592408
13 0.0
14 0.007708604323173
15 0.0
16 -0.008223189471411
17 0.27640447919129
18 0.20907334258793
19 -0.079304298360947
20 0.0
21 -0.10862811031388
22 -0.059740707032069
23 0.0
24 -0.027144566286353
25 0.002703281775396
26 -0.006566622367805
27 0.003863340592408
28 0.0
29 0.007708604323173
30 0.0
31 0.22924857549542
32 0.046681500452407
33 -0.006705663115972
34 0.0
35 -0.029984278842911
36 0.22924857549542
37 0.046681500452407
38 0.006705663115972
39 0.0
40 0.029984278842911
 Sym=      2.3
 Ene=      -0.9695
 Spin= Alpha
 Occup=    2.000000
1 -0.000962578844622
2 0.25865746944258
3 0.24109886195683
4 0.12733388571323
5 0.0
6 0.16209535404353
7 0.055031210350024
8 0.0
9 0.044471207626246
10 -0.015721264547506
11 0.002116273325283
12 0.013604991222223
13 0.0
14 -0.005308510301271
15 0.0
16 0.000962578844622
17 -0.25865746944258
18 -0.24109886195683
19 0.12733388571323
20 0.0
21 0.16209535404353
22 0.055031210350024
23 0.0
24 0.044471207626246
25 0.015721264547506
26 -0.002116273325283
27 -0.013604991222223
28 0.0
29 0.005308510301271
30 0.0
31 0.24597054746213
32 0.030388999930860
33 -0.011011876438664
34 0.0
35 -0.034146978972868
36 -0.24597054746213
37 -0.030388999930860
38 -0.011011876438664
39 0.0
40 -0.034146978972868
 Sym=      3.1
 Ene=      -0.9510
 Spin= Alpha
 Occup=    1.979034
1 -0.000913414632049
2 -0.16811766783050
3 -0.058400562533121
4 0.40969150206636
5 0.0
6 0.11070441679738
7 0.14941370549955
8 0.0
9 0.047865141899792
10 -0.036182849289534
11 0.011611222886229
12 0.024571626403305
13 0.0
14 0.011704920543511
15 0.0
16 -0.000913414632049
17 -0.16811766783050
18 -0.058400562533121
19 -0.40969150206636
20 0.0
21 -0.11070441679738
22 -0.14941370549955
23 0.0
24 -0.047865141899792
25 -0.036182849289534
26 0.011611222886229
27 0.024571626403305
28 0.0
29 0.011704920543511
30 0.0
31 0.14869912696379
32 0.069463228602121
33 0.004504052604178
34 0.0
35 -0.008864496823792
36 0.14869912696379
37 0.069463228602121
38 -0.004504052604178
39 0.0
40 0.008864496823792
 Sym=      3.3
 Ene=      -0.6307
 Spin= Alpha
 Occup=    1.811762
1 -0.003014386769455
2 -0.18765345068916
3 -0.28900138804974
4 -0.10278317542373
5 0.0
6 0.33559326315048
7 -0.070489506505357
8 0.0
9 0.18828130927392
10 0.003226900157333
11 -0.006850003848246
12 0.003623103690913
13 0.0
14 -0.026949069937789
15 0.0
16 0.003014386769455
17 0.18765345068916
18 0.28900138804974
19 -0.10278317542373
20 0.0
21 0.33559326315048
22 -0.070489506505357
23 0.0
24 0.18828130927392
25 -0.003226900157333
26 0.006850003848246
27 -0.003623103690913
28 0.0
29 0.026949069937789
30 0.0
31 0.11202368649834
32 0.031110618983945
33 -0.012289119177229
34 0.0
35 -0.008060655770617
36 -0.11202368649834
37 -0.031110618983945
38 -0.012289119177229
39 0.0
40 -0.008060655770617
 Sym=      1.2
 Ene=      -0.5572
 Spin= Alpha
 Occup=    1.791570
1 0.0
2 0.0
3 0.0
4 0.0
5 0.42759493701607
6 0.0
7 0.0
8 0.27145963034902
9 0.0
10 0.0
11 0.0
12 0.0
13 -0.034008693108600
14 0.0
15 0.006676045773017
16 0.0
17 0.0
18 0.0
19 0.0
20 0.42759493701607
21 0.0
22 0.0
23 0.27145963034902
24 0.0
25 0.0
26 0.0
27 0.0
28 0.034008693108600
29 0.0
30 -0.006676045773017
31 0.0
32 0.0
33 0.0
34 0.014479809763315
35 0.0
36 0.0
37 0.0
38 0.0
39 0.014479809763315
40 0.0
 Sym=      4.1
 Ene=      -0.2545
 Spin= Alpha
 Occup=    1.055218
1 0.005660922422886
2 -0.099014115332486
3 -0.29765463003669
4 -0.23474468703259
5 0.0
6 0.35043309932996
7 -0.15992011291426
8 0.0
9 0.28001766235032
10 0.003673363219712
11 -0.013521398600239
12 0.009848035380527
13 0.0
14 0.009054248571436
15 0.0
16 0.005660922422886
17 -0.099014115332486
18 -0.29765463003669
19 0.23474468703259
20 0.0
21 -0.35043309932996
22 0.15992011291426
23 0.0
24 -0.28001766235032
25 0.003673363219712
26 -0.013521398600239
27 0.009848035380527
28 0.0
29 0.009054248571436
30 0.0
31 0.21468613000278
32 0.067011190361020
33 -0.013472306975078
34 0.0
35 -0.008789032887556
36 0.21468613000278
37 0.067011190361020
38 0.013472306975078
39 0.0
40 0.008789032887556
 Sym=      1.4
 Ene=      -0.0530
 Spin= Alpha
 Occup=    0.797366
1 0.0
2 0.0
3 0.0
4 0.0
5 0.50398191963884
6 0.0
7 0.0
8 0.47799460633634
9 0.0
10 0.0
11 0.0
12 0.0
13 0.009717652509488
14 0.0
15 0.009440697912010
16 0.0
17 0.0
18 0.0
19 0.0
20 -0.50398191963884
21 0.0
22 0.0
23 -0.47799460633634
24 0.0
25 0.0
26 0.0
27 0.0
28 0.009717652509488
29 0.0
30 0.009440697912010
31 0.0
32 0.0
33 0.0
34 0.022642378040987
35 0.0
36 0.0
37 0.0
38 0.0
39 -0.022642378040987
40 0.0
 Sym=      4.3
 Ene=       0.1751
 Spin= Alpha
 Occup=    0.293814
1 0.005656331430998
2 -0.097640264836185
3 -0.49715209730061
4 -0.042916801018846
5 0.0
6 -0.23555888731799
7 -0.17631962188670
8 0.0
9 -0.32181124566915
10 0.014539631993903
11 -0.011686487895473
12 -0.002853144098431
13 0.0
14 0.020388997210245
15 0.0
16 -0.005656331430998
17 0.097640264836185
18 0.49715209730061
19 -0.042916801018846
20 0.0
21 -0.23555888731799
22 -0.17631962188670
23 0.0
24 -0.32181124566915
25 -0.014539631993903
26 0.011686487895473
27 0.002853144098431
28 0.0
29 -0.020388997210245
30 0.0
31 0.14651030654391
32 1.10576540632156
33 0.006641837581048
34 0.0
35 0.005147502862934
36 -0.14651030654391
37 -1.10576540632156
38 0.006641837581048
39 0.0
40 0.005147502862934
 Sym=      5.1
 Ene=       0.1720
 Spin= Alpha
 Occup=    0.247510
1 0.006152282119010
2 -0.11019665834393
3 -0.67415967443355
4 -0.093643193189709
5 0.0
6 -0.21591272689791
7 -0.17148127686379
8 0.0
9 -0.39483174366651
10 -0.005768518899886
11 -0.001436891790538
12 0.007205410690424
13 0.0
14 -0.005223646809370
15 0.0
16 0.006152282119010
17 -0.11019665834393
18 -0.67415967443355
19 0.093643193189709
20 0.0
21 0.21591272689791
22 0.17148127686379
23 0.0
24 0.39483174366651
25 -0.005768518899886
26 -0.001436891790538
27 0.007205410690424
28 0.0
29 -0.005223646809370
30 0.0
31 0.088928350259787
32 1.01442950266683
33 -0.009440269631290
34 0.0
35 0.008320751759243
36 0.088928350259787
37 1.01442950266683
38 0.009440269631290
39 0.0
40 -0.008320751759243
 Sym=      5.3
 Ene=       0.8652
 Spin= Alpha
 Occup=    0.023726
1 -0.099414475125305
2 -0.41010959193236
3 -0.46479823738058
4 0.80221801989852
5 0.0
6 0.048230029139127
7 0.32612381351914
8 0.0
9 -0.003795694083684
10 -0.017958299005494
11 -0.003439904282121
12 0.021398203287614
13 0.0
14 -0.024477742675416
15 0.0
16 0.099414475125305
17 0.41010959193236
18 0.46479823738058
19 0.80221801989852
20 0.0
21 0.048230029139127
22 0.32612381351914
23 0.0
24 -0.003795694083684
25 0.017958299005494
26 0.003439904282121
27 -0.021398203287614
28 0.0
29 0.024477742675416
30 0.0
31 -0.029660502104975
32 -0.014920702962273
33 0.014016788347725
34 0.0
35 -0.004197523882231
36 0.029660502104975
37 0.014920702962273
38 0.014016788347725
39 0.0
40 -0.004197523882231
 Sym=      6.3
 Ene=       0.7170
 Spin= Alpha
 Occup=    0.000000
1 -0.082085090663791
2 -0.15228388426273
3 1.88383743953961
4 0.22077891251122
5 0.0
6 -0.24114206131705
7 -1.43946451814177
8 0.0
9 0.13931637629106
10 0.066125035650048
11 -0.11039700775140
12 0.044271972101351
13 0.0
14 0.098359448714795
15 0.0
16 0.082085090663791
17 0.15228388426273
18 -1.88383743953961
19 0.22077891251122
20 0.0
21 -0.24114206131705
22 -1.43946451814177
23 0.0
24 0.13931637629106
25 -0.066125035650048
26 0.11039700775140
27 -0.044271972101351
28 0.0
29 -0.098359448714795
30 0.0
31 0.55431447748067
32 -0.52164874682359
33 0.12295605650975
34 0.0
35 0.13942619432719
36 -0.55431447748067
37 0.52164874682359
38 0.12295605650975
39 0.0
40 0.13942619432719
 Sym=      6.1
 Ene=       0.7587
 Spin= Alpha
 Occup=    0.000000
1 -0.092087403841718
2 -0.20346650856500
3 0.018762637635842
4 0.32665903516611
5 0.0
6 -0.10869834130302
7 -0.61654582736060
8 0.0
9 -0.46751043174760
10 -0.076697347620376
11 -0.030783411477115
12 0.10748075909749
13 0.0
14 0.011440725369875
15 0.0
16 -0.092087403841718
17 -0.20346650856500
18 0.018762637635842
19 -0.32665903516611
20 0.0
21 0.10869834130302
22 0.61654582736060
23 0.0
24 0.46751043174760
25 -0.076697347620376
26 -0.030783411477115
27 0.10748075909749
28 0.0
29 0.011440725369875
30 0.0
31 0.64186459293547
32 -0.41525026207695
33 -0.062933468523018
34 0.0
35 0.084373796644951
36 0.64186459293547
37 -0.41525026207695
38 0.062933468523018
39 0.0
40 -0.084373796644951
 Sym=      7.3
 Ene=       0.7855
 Spin= Alpha
 Occup=    0.000000
1 -0.000951799541890
2 -0.17675514696525
3 -2.08753797294071
4 -0.29383210150987
5 0.0
6 0.073852785661187
7 1.95179754326231
8 0.0
9 -0.078704341933067
10 -0.11958954635315
11 0.005099809595536
12 0.11448973675761
13 0.0
14 0.053076699721452
15 0.0
16 0.000951799541890
17 0.17675514696525
18 2.08753797294071
19 -0.29383210150987
20 0.0
21 0.073852785661187
22 1.95179754326231
23 0.0
24 -0.078704341933067
25 0.11958954635315
26 -0.005099809595536
27 -0.11448973675761
28 0.0
29 -0.053076699721452
30 0.0
31 0.58286195339198
32 -0.76585050451801
33 0.027491200521733
34 0.0
35 0.11840748326705
36 -0.58286195339198
37 0.76585050451801
38 0.027491200521733
39 0.0
40 0.11840748326705
 Sym=      7.1
 Ene=       0.8571
 Spin= Alpha
 Occup=    0.000000
1 -0.059046509378745
2 -0.12380789337354
3 -0.32126178180902
4 0.21137356972912
5 0.0
6 0.49495574324485
7 -0.36878799377166
8 0.0
9 -0.69005684445369
10 -0.015119769824344
11 0.097556957891694
12 -0.082437188067350
13 0.0
14 -0.008135301267825
15 0.0
16 -0.059046509378745
17 -0.12380789337354
18 -0.32126178180902
19 -0.21137356972912
20 0.0
21 -0.49495574324485
22 0.36878799377166
23 0.0
24 0.69005684445369
25 -0.015119769824344
26 0.097556957891694
27 -0.082437188067350
28 0.0
29 -0.008135301267825
30 0.0
31 -0.29786666710139
32 0.59144844320676
33 -0.13546412807970
34 0.0
35 -0.21301913760305
36 -0.29786666710139
37 0.59144844320676
38 0.13546412807970
39 0.0
40 0.21301913760305
 Sym=      2.2
 Ene=       0.8876
 Spin= Alpha
 Occup=    0.000000
1 0.0
2 0.0
3 0.0
4 0.0
5 -0.67435586014136
6 0.0
7 0.0
8 0.62423875971218
9 0.0
10 0.0
11 0.0
12 0.0
13 0.090453489183263
14 0.0
15 0.002500503982871
16 0.0
17 0.0
18 0.0
19 0.0
20 -0.67435586014136
21 0.0
22 0.0
23 0.62423875971218
24 0.0
25 0.0
26 0.0
27 0.0
28 -0.090453489183263
29 0.0
30 -0.002500503982871
31 0.0
32 0.0
33 0.0
34 0.005770041888082
35 0.0
36 0.0
37 0.0
38 0.0
39 0.005770041888082
40 0.0
 Sym=      8.1
 Ene=       0.9756
 Spin= Alpha
 Occup=    0.000000
1 0.029254091099522
2 0.15118234132047
3 -0.17248338315515
4 0.38599045343714
5 0.0
6 -0.29960070764976
7 -0.51998404947349
8 0.0
9 1.08932163710690
10 -0.039102921374666
11 0.10438684537405
12 -0.065283923999385
13 0.0
14 -0.033658889448888
15 0.0
16 0.029254091099522
17 0.15118234132047
18 -0.17248338315515
19 -0.38599045343714
20 0.0
21 0.29960070764976
22 0.51998404947349
23 0.0
24 -1.08932163710690
25 -0.039102921374666
26 0.10438684537405
27 -0.065283923999385
28 0.0
29 -0.033658889448888
30 0.0
31 -0.59418306775773
32 0.24786372959840
33 0.11014332924952
34 0.0
35 -0.031457794569649
36 -0.59418306775773
37 0.24786372959840
38 -0.11014332924952
39 0.0
40 0.031457794569649
 Sym=      2.4
 Ene=       0.9978
 Spin= Alpha
 Occup=    0.000000
1 0.0
2 0.0
3 0.0
4 0.0
5 -0.67829760763104
6 0.0
7 0.0
8 1.15219113089118
9 0.0
10 0.0
11 0.0
12 0.0
13 -0.029566936824348
14 0.0
15 -0.000021407428830
16 0.0
17 0.0
18 0.0
19 0.0
20 0.67829760763104
21 0.0
22 0.0
23 -1.15219113089118
24 0.0
25 0.0
26 0.0
27 0.0
28 -0.029566936824348
29 0.0
30 -0.000021407428830
31 0.0
32 0.0
33 0.0
34 -0.023212136095238
35 0.0
36 0.0
37 0.0
38 0.0
39 0.023212136095238
40 0.0
 Sym=      8.3
 Ene=       1.0319
 Spin= Alpha
 Occup=    0.000000
1 0.046245061492857
2 0.10612317685734
3 -0.86349685498288
4 -0.067692721523198
5 0.0
6 -0.55523706348241
7 1.33209581397192
8 0.0
9 1.06205149086625
10 -0.061470339591529
11 0.015984255971110
12 0.045486083620419
13 0.0
14 0.058025412275807
15 0.0
16 -0.046245061492857
17 -0.10612317685734
18 0.86349685498288
19 -0.067692721523198
20 0.0
21 -0.55523706348241
22 1.33209581397192
23 0.0
24 1.06205149086625
25 0.061470339591529
26 -0.015984255971110
27 -0.045486083620419
28 0.0
29 -0.058025412275807
30 0.0
31 -0.36484054863871
32 -0.89621881526349
33 -0.026823829457262
34 0.0
35 0.20123502231915
36 0.36484054863871
37 0.89621881526349
38 -0.026823829457262
39 0.0
40 0.20123502231915
 Sym=      9.1
 Ene=       1.2488
 Spin= Alpha
 Occup=    0.000000
1 -0.50772831220945
2 -1.13022440878590
3 1.74955410615564
4 -0.11191089405144
5 0.0
6 -0.028122978650879
7 0.25281938001763
8 0.0
9 0.77709142922996
10 -0.12403956273469
11 0.13913496161400
12 -0.015095398879316
13 0.0
14 0.023523699974789
15 0.0
16 -0.50772831220945
17 -1.13022440878590
18 1.74955410615564
19 0.11191089405144
20 0.0
21 0.028122978650879
22 -0.25281938001763
23 0.0
24 -0.77709142922996
25 -0.12403956273469
26 0.13913496161400
27 -0.015095398879316
28 0.0
29 0.023523699974789
30 0.0
31 -0.36525940931384
32 -0.75458643060970
33 0.032190301246714
34 0.0
35 0.17925996383103
36 -0.36525940931384
37 -0.75458643060970
38 -0.032190301246714
39 0.0
40 -0.17925996383103
 Sym=      9.3
 Ene=       1.3720
 Spin= Alpha
 Occup=    0.000000
1 0.31065008838629
2 0.66587551036609
3 -2.14591317441862
4 -0.022015201196036
5 0.0
6 -0.009586684288807
7 0.75631539132896
8 0.0
9 0.041949914156826
10 -0.011946325247359
11 0.040713647502721
12 -0.028767322255362
13 0.0
14 0.24492000048392
15 0.0
16 -0.31065008838629
17 -0.66587551036609
18 2.14591317441862
19 -0.022015201196036
20 0.0
21 -0.009586684288807
22 0.75631539132896
23 0.0
24 0.041949914156826
25 0.011946325247359
26 -0.040713647502721
27 0.028767322255362
28 0.0
29 -0.24492000048392
30 0.0
31 0.038642782504835
32 0.12842954375902
33 0.36350193704673
34 0.0
35 -0.26947659657753
36 -0.038642782504835
37 -0.12842954375902
38 0.36350193704673
39 0.0
40 -0.26947659657753
 Sym=      3.4
 Ene=       1.3862
 Spin= Alpha
 Occup=    0.000000
1 0.0
2 0.0
3 0.0
4 0.0
5 -0.045588645713134
6 0.0
7 0.0
8 -0.29743280593758
9 0.0
10 0.0
11 0.0
12 0.0
13 -0.004900124365551
14 0.0
15 0.31985630229008
16 0.0
17 0.0
18 0.0
19 0.0
20 0.045588645713134
21 0.0
22 0.0
23 0.29743280593758
24 0.0
25 0.0
26 0.0
27 0.0
28 -0.004900124365551
29 0.0
30 0.31985630229008
31 0.0
32 0.0
33 0.0
34 0.54187057761108
35 0.0
36 0.0
37 0.0
38 0.0
39 -0.54187057761108
40 0.0
 Sym=      3.2
 Ene=       1.4700
 Spin= Alpha
 Occup=    0.000000
1 0.0
2 0.0
3 0.0
4 0.0
5 0.061168340301860
6 0.0
7 0.0
8 -0.20151604675227
9 0.0
10 0.0
11 0.0
12 0.0
13 0.15753325766002
14 0.0
15 0.17700552440700
16 0.0
17 0.0
18 0.0
19 0.0
20 0.061168340301860
21 0.0
22 0.0
23 -0.20151604675227
24 0.0
25 0.0
26 0.0
27 0.0
28 -0.15753325766002
29 0.0
30 -0.17700552440700
31 0.0
32 0.0
33 0.0
34 0.61467413433267
35 0.0
36 0.0
37 0.0
38 0.0
39 0.61467413433267
40 0.0
 Sym=     10.3
 Ene=       1.6354
 Spin= Alpha
 Occup=    0.000000
1 -0.56045149072642
2 -1.13626044164233
3 4.66215043826994
4 -0.14698122497701
5 0.0
6 0.066053989826750
7 -1.86369424770445
8 0.0
9 0.47402686846971
10 0.034822596394990
11 0.13162471574889
12 -0.16644731214388
13 0.0
14 0.15786128963511
15 0.0
16 0.56045149072642
17 1.13626044164233
18 -4.66215043826994
19 -0.14698122497701
20 0.0
21 0.066053989826750
22 -1.86369424770445
23 0.0
24 0.47402686846971
25 -0.034822596394990
26 -0.13162471574889
27 0.16644731214388
28 0.0
29 -0.15786128963511
30 0.0
31 -0.58235282543545
32 -0.26763869290768
33 0.37564762463014
34 0.0
35 0.060981027491008
36 0.58235282543545
37 0.26763869290768
38 0.37564762463014
39 0.0
40 0.060981027491008
 Sym=     10.1
 Ene=       1.7808
 Spin= Alpha
 Occup=    0.000000
1 -0.022338437116823
2 -0.064050307530648
3 -0.32490756224010
4 0.014602023547563
5 0.0
6 0.13692297291053
7 -0.48218118646999
8 0.0
9 -0.76447478447054
10 -0.064011761993504
11 0.14274598706930
12 -0.078734225075794
13 0.0
14 0.10532827633123
15 0.0
16 -0.022338437116823
17 -0.064050307530648
18 -0.32490756224010
19 -0.014602023547563
20 0.0
21 -0.13692297291053
22 0.48218118646999
23 0.0
24 0.76447478447054
25 -0.064011761993504
26 0.14274598706930
27 -0.078734225075794
28 0.0
29 0.10532827633123
30 0.0
31 0.41448506682388
32 0.091388217016240
33 0.69553496027222
34 0.0
35 -0.23853435552887
36 0.41448506682388
37 0.091388217016240
38 -0.69553496027222
39 0.0
40 0.23853435552887
 Sym=      4.2
 Ene=       1.7978
 Spin= Alpha
 Occup=    0.000000
1 0.0
2 0.0
3 0.0
4 0.0
5 0.20513778396926
6 0.0
7 0.0
8 0.027691916757867
9 0.0
10 0.0
11 0.0
12 0.0
13 0.57952386132828
14 0.0
15 -0.14380979340769
16 0.0
17 0.0
18 0.0
19 0.0
20 0.20513778396926
21 0.0
22 0.0
23 0.027691916757867
24 0.0
25 0.0
26 0.0
27 0.0
28 -0.57952386132828
29 0.0
30 0.14380979340769
31 0.0
32 0.0
33 0.0
34 -0.20188294567709
35 0.0
36 0.0
37 0.0