[Molden Format]
[Molpro variables]
_NUMVAR=  834.0000000000000    
_AVOGAD= 0.6022136736000000E+24
_BOLTZ= 0.1380658000000000E-22
_CLIGHT=  29979245800.00000    
_EV2006= 0.3674930886769165E-01
_EV= 0.3674932534394180E-01
_ENULL= 0.8854187817000000E-11
_KJOULE= 0.3808798324128737E-03
_KJOULE/MOL= 0.3808798324128737E-03
_CM= 0.4556335267302901E-05
_CM-1= 0.4556335267302901E-05
_DEB2SI= 0.3335641000000000E-29
_AMU2AU=  1822.888390000000    
_KCAL= 0.1593601117815568E-02
_KCAL/MOL= 0.1593601117815568E-02
_KELVIN2006= 0.3166828861084835E-05
_KELVIN= 0.3166814820820034E-05
_JOULE= 0.4359748200000000E-17
_HERTZ2006= 0.1519829850815779E-15
_HERTZ= 0.1519829846011223E-15
_HZ2006= 0.1519829850815779E-15
_HZ= 0.1519829846011223E-15
_JPCAL=  4.184000000000000    
_PLANCK= 0.6626075540000000E-33
_TOA2006= 0.5291772490000000    
_TOA= 0.5291772090000000    
_TOANG2006= 0.5291772490000000    
_TOANG= 0.5291772090000000    
_TORAD= 0.1745329251994330E-01
_TOCM=  219474.6306700000    
_TODEBYE=  2.541580000000000    
_TOEV2006=  27.21139610000000    
_TOE= 0.4803242000000000E-09
_TOEV=  27.21138390000000    
_TOHERTZ2006=  6579683899900000.    
_TOHERTZ=  6579683920700000.    
_TOHZ2006=  6579683899900000.    
_TOHZ=  6579683920700000.    
_TOK2006=  315773.3000000000    
_TOK=  315774.7000000000    
_TOKCAL=  627.5096000000000    
_TOKELVIN2006=  315773.3000000000    
_TOKELVIN=  315774.7000000000    
_TOKJ=  2625.500000000000    
_TOKJOULE=  2625.500000000000    
_TOKG= 0.1660565586000000E-26
_ANG2006=  1.889725988578923    
_ANG=  1.889726131421507    
_ANGSTROM2006=  1.889725988578923    
_ANGSTROM=  1.889726131421507    
_RPAREF=  0.000000000000000    
_RPADISS=  0.000000000000000    
_IGNORE_UNDEF=  2.000000000000000    
_STRICTCHECK=  0.000000000000000    
_SEW_ONEEL=  0.000000000000000    
_CPPDONE=FALSE
_DKROLL_DONE=  0.000000000000000    
_FOCKDONE=TRUE
_GRADONE=FALSE
_HESSDONE=FALSE
_INTDONE=TRUE
_SCFDONE=TRUE
_MODUL_BLOCK=FALSE
_MODUL_CUDA=FALSE
_MODUL_SLATER=FALSE
_MODUL_MRCC=FALSE
_MODUL_NBO6=FALSE
_MODUL_NECI=TRUE
_MODUL_AIMS=TRUE
_MRCC_EXEC=
_FITC_AO_SAVED=FALSE
_FITC_MO_SAVED=FALSE
_SHARED_FS=TRUE
_LSTYP=SEWARD
_INTYP=INTS
_GEOMTYP=ZMAT
_GRADTYP=ALASKA
_DIRECT=FALSE
_DKHO= -1.000000000000000    
_SYNCM=  0.000000000000000    
_BASIS=USERDEF
_ZORIENT=  1.000000000000000    
_NELEC=  46.00000000000000    
!SPIN=  0.000000000000000    
_QSDSTEP=  0.000000000000000    
_QSDIRC=  0.000000000000000    
_PROGRAM=MATROP
_CPUSTEP= 0.3000000000000114E-01
_SYSSTEP= 0.9999999999999787E-02
_WALLSTEP= 0.2000000000000000    
!DFSCF=  0.000000000000000    
!SCSGRD=  0.000000000000000    
_BASINP=  610.0000000000000    
_CPUTOT=  144.4700000000000    
_DFTEXFAC=  1.000000000000000    
_DMX=  0.000000000000000    
_DMY=  0.000000000000000    
_DMZ=  0.000000000000000    
_DMX_SCF=  0.000000000000000    
_DMY_SCF=  0.000000000000000    
_DMZ_SCF=  0.000000000000000    
_EHOMO=-0.2436372778089103    
_ELUMO=-0.1118322523166166    
_ENUC=  209.7190764685884    
_EPS1= -15.65303730682648    
_EPS2= -15.64274440168406    
_GRADEXFAC=  9999.000000000000    
_GRADMETHOD=TRUE
_NMRMETHOD=  0.000000000000000    
!GRID_FREEZE= -1.000000000000000    
_ITERATIONS=  0.000000000000000    
_LASTNELEC=  10.00000000000000    
_LASTSPIN=  2.000000000000000    
_LASTSYM=  1.000000000000000    
_MPP_PROG=  0.000000000000000    
_NPROC_MPP=  1.000000000000000    
_NPROC_MPPX=  1.000000000000000    
_NPROC_SMP=  16.00000000000000    
_NUMSTEP=  0.000000000000000    
_ORBITAL=  2141.200000000000    
_PI=  3.141592653589793    
_SEIG_MIN= 0.3661020316633836E-02
_SEWPROP=TRUE
_STATUS=  0.000000000000000    
_SYSTOT=  8.340000000000000    
_VERSION=  2012001.000000000    
_WALLTOT=  71.03000000000000    
_DATE=24-Jan-19
_LASTORB=MCSCF
_MACHINE=Linux-4.9.0-8-amd64/nympha18.meta.zcu.cz(x86_64) (16 PROC) 64 bit serial version
_OUTPUT=/auto/brno2/home/masiz4am/git/UKRmol-in/tests/suite/Ci_target_CAS3/molpro.xml
_PGROUP=Ci
_TIME=16:30:20
_LIBMOL=/afs/ics.muni.cz/software/molpro-2012.1/molprop_2012_1_Linux_x86_64_i8/lib/
!VIBCNT=  0.000000000000000    
!RGHFCNT=  0.000000000000000    
!SURFREC=  0.000000000000000    
!POLYREC=  0.000000000000000    
!DIPREC=  0.000000000000000    
!VSCFREC=  0.000000000000000    
!VCIREC=  0.000000000000000    
!PVCIREC=  0.000000000000000    
!VMP2REC=  0.000000000000000    
!VMCSCFREC=  0.000000000000000    
!VMRCIREC=  0.000000000000000    
!VIBINFO=  0.000000000000000    
!GAREC=  0.000000000000000    
!SCFORB=  21002.00000000000    
!MCORB=  21412.00000000000    
!NEWMOL= -1.000000000000000    
!NEWSYM= -1.000000000000000    
_SLFILES=slscratch
_NGSSTO=  9.000000000000000    
_SIN=SIN
_COS=COS
_TAN=TAN
_ACOS=ACOS
_ASIN=ASIN
_ATAN=ATAN
_COSH=COSH
_SINH=SINH
_TANH=TANH
_ABS=ABS
_MOD=MOD
_ERF=ERF
_REFC=REFC
_ERFC=ERFC
_HYPOT=HYPOT
_J0=J0
_J1=J1
_JN=JN
_GAMMA=GAMMA
_LGAMMA=LGAMMA
_Y0=Y0
_Y1=Y1
_YN=YN
_EXP=EXP
_LOG=LOG
_LOG10=LOG10
_SQRT=SQRT
_INT=INT
_NINT=NINT
_MAX=MAX
_MIN=MIN
_COSMO=  0.000000000000000    
_COSMOIT=  0.000000000000000    
_COSMOES=  0.000000000000000    
_COSMOEDS=  0.000000000000000    
_COSMOEC=  0.000000000000000    
_COSMOEDCORR=  0.000000000000000    
_FEPSI=  1.000000000000000    
_SL_IsMM=  0.000000000000000    
_SL_NSYM=  2.000000000000000    
_SL_System_BitSw=  0.000000000000000    
_SL_Unique_atoms=  0.000000000000000    
_SL_GRAD=  0.000000000000000    
_SL_MAXUPD_Hess=  5.000000000000000    
_SL_N_PRINT_COD=  5.000000000000000    
_SL_PRINT_CODES=  0.000000000000000    
_SL_BasType=  0.000000000000000    
_SL_Energy_Pred=  0.000000000000000    
_SL_New_Coords=  0.000000000000000    
_SL_Total_Nuclea=  0.000000000000000    
_SL_Highest_Mltp=  0.000000000000000    
_SL_Ref_Geom=  0.000000000000000    
_SL_Symmetry_ope=  1.000000000000000    
_SL_agrad=  0.000000000000000    
_SL_GrdMax=  0.000000000000000    
_SL_GrdNorm=  0.000000000000000    
_SL_GrdRMS=  0.000000000000000    
!LATTICE= -1.000000000000000    
!NEWLATTICE=  0.000000000000000    
!LATGRAD_VAR=FALSE
!SEW_LATTICE=  1.000000000000000    
!LOCAL=  0.000000000000000    
!SAVEDOM= -1.000000000000000    
!RESTDOM= -1.000000000000000    
!SAVEDOM_HF= -1.000000000000000    
!RESTDOM_HF= -1.000000000000000    
!HESSREC=  0.000000000000000    
!FREQREC=  0.000000000000000    
!NMODREC=  0.000000000000000    
!GTASKS=  0.000000000000000    
!HTASKS=  0.000000000000000    
!THRCHG= 0.1000000000000000    
!DEBUG= -1.000000000000000    
!CFIT_CPHF=  0.000000000000000    
!RDOMAUX_CPHF=  3.000000000000000    
!THRAO_CPHF= 0.1000000000000000E-09
!THRMO_CPHF= 0.1000000000000000E-08
!THROV_CPHF= 0.1000000000000000E-11
!THRSW_CPHF= 0.1000000000000000E-09
!THRPROD_CPHF= 0.1000000000000000E-08
!THRAOPR_CPHF= 0.1000000000000000E-11
!CFIT_SCFGRD=  0.000000000000000    
!RDOMAUX_SCFGRD=  5.000000000000000    
!THRAO_SCFGRD= 0.1000000000000000E-09
!THRMO_SCFGRD= 0.1000000000000000E-08
!THROV_SCFGRD= 0.1000000000000000E-11
!THRSW_SCFGRD= 0.1000000000000000E-09
!THRPROD_SCFGRD= 0.1000000000000000E-08
!THRAOPR_SCFGRD= 0.1000000000000000E-11
!LOCFIT_SCF=  0.000000000000000    
!LOCFIT_MP2= -1.000000000000000    
_RIDOM=  0.000000000000000    
!CC2_METHOD=  0.000000000000000    
_BASIS2006=FALSE
_SVDDEL= -1.000000000000000    
_SVDDELA= -1.000000000000000    
_SVDDELP= -1.000000000000000    
_SVDDELF= -1.000000000000000    
_SVDDELS= -1.000000000000000    
_SVDDEL_ABS= -1.000000000000000    
_SVDDELA_ABS= -1.000000000000000    
_SVDDELP_ABS= -1.000000000000000    
_SVDDELF_ABS= -1.000000000000000    
_SVDDELS_ABS= -1.000000000000000    
_MAXBASIS=  0.000000000000000    
!OPT_CONICAL=  0.000000000000000    
!CLEARSP_JGRID=  0.000000000000000    
_4EXT_NDISKS=  1.000000000000000    
!ZMP=  0.000000000000000    
_MAXIT_ZMP=  500.0000000000000    
_MAXDIS_ZMP=  100.0000000000000    
_ACCU_ZMP=  14.00000000000000    
_SHIFTA_ZMP= -100.0000000000000    
!EMBEDFLAG=  1.000000000000000    
!EMBED=FALSE
!EMBED_F12=FALSE
!EMBEDNUC=  0.000000000000000    
_EMBEDENERGY=  0.000000000000000    
_KSPACETIME=  0.000000000000000    
_RSPACETIME=  0.000000000000000    
!EMBED_DFC=FALSE
!NUM_VOIDS=  0.000000000000000    
_IBODY=  0.000000000000000    
_EMBE_TOTAL=  0.000000000000000    
_EMBE_HF=  0.000000000000000    
_EMBE_CORR=  0.000000000000000    
!EDFT=  0.000000000000000    
_IFASTLATGRAD=  0.000000000000000    
_SINDEX=  0.000000000000000    
M_NAME=CASSCF(10,8)
M_CLOSED=  10.00000000000000    
M_OCC=  15.00000000000000    
GX1= -2.936634186000000    
GY1=  2.251986461000000    
GZ1= -1.829065784000000    
GX2= 0.7694964230000000    
GY2=-0.8326132710000000    
GZ2= -3.551551023000000    
GX3= 0.1065805460000000    
GY3= 0.7377490260000000    
GZ3= -1.239849221000000    
GX4= 0.7284893690000001    
GY4= 0.3520559520000000    
GZ4= -5.233407153000000    
GX5=-0.5822245770000000    
GY5= -2.368771527000000    
GZ5= -3.802695607000000    
GX6=  2.654309124000000    
GY6= -1.631211473000000    
GZ6= -3.351618013000000    
GX7=  1.429388738000000    
GY7=  2.291859679000000    
GZ7= -1.002688610000000    
GX8=  2.936634186000000    
GY8= -2.251986461000000    
GZ8=  1.829065784000000    
GX9=-0.7694964230000000    
GY9= 0.8326132710000000    
GZ9=  3.551551023000000    
GX10=-0.1065805460000000    
GY10=-0.7377490260000000    
GZ10=  1.239849221000000    
GX11=-0.7284893690000001    
GY11=-0.3520559520000000    
GZ11=  5.233407153000000    
GX12= 0.5822245770000000    
GY12=  2.368771527000000    
GZ12=  3.802695607000000    
GX13= -2.654309124000000    
GY13=  1.631211473000000    
GZ13=  3.351618013000000    
GX14= -1.429388738000000    
GY14= -2.291859679000000    
GZ14=  1.002688610000000    
_TRDMX=  0.000000000000000    
_TRDMY=  0.000000000000000    
_TRDMZ=  0.000000000000000    
_QMXX= -3.657682505694709    
_TRQMXX= 0.1684316017789723E-01
_QMYY=  2.279368762180155    
_TRQMYY= 0.1849009750749882E-01
_QMZZ=  1.378313743514639    
_TRQMZZ=-0.3533325768539596E-01
_QMXY=  7.486425593931131    
_TRQMXY= 0.1922690438830393E-01
_QMXZ= -4.039236540664749    
_TRQMXZ=-0.1898555613399669E-01
_QMYZ=  4.151797517963153    
_TRQMYZ=-0.8007685015541312E-01
_QMRR= -90.12293239578685    
_TRQMRR= 0.1022423435464814E-01
[Atoms] Angs
N     1    7        -1.5539998824        1.1916999101       -0.9678999267
C     2    6         0.4071999695       -0.4405999669       -1.8793998580
C     3    6         0.0563999959        0.3903999705       -0.6560999503
H     4    1         0.3854999711        0.1862999861       -2.7693997908
H     5    1        -0.3080999767       -1.2534999054       -2.0122998480
H     6    1         1.4045998941       -0.8631999346       -1.7735998658
H     7    1         0.7563999430        1.2127999084       -0.5305999601
N     8    7         1.5539998824       -1.1916999101        0.9678999267
C     9    6        -0.4071999695        0.4405999669        1.8793998580
C    10    6        -0.0563999959       -0.3903999705        0.6560999503
H    11    1        -0.3854999711       -0.1862999861        2.7693997908
H    12    1         0.3080999767        1.2534999054        2.0122998480
H    13    1        -1.4045998941        0.8631999346        1.7735998658
H    14    1        -0.7563999430       -1.2127999084        0.5305999601
[GTO]
  1 0
 s    8  1.00
  0.9046000000D+04  0.6996174134D-03
  0.1357000000D+04  0.5386054630D-02
  0.3093000000D+03  0.2739102119D-01
  0.8773000000D+02  0.1031505920D+00
  0.2856000000D+02  0.2785706633D+00
  0.1021000000D+02  0.4482948495D+00
  0.3838000000D+01  0.2780859284D+00
  0.7466000000D+00  0.1543156123D-01
 s    8  1.00
  0.9046000000D+04 -0.3049900960D-03
  0.1357000000D+04 -0.2408026379D-02
  0.3093000000D+03 -0.1194444873D-01
  0.8773000000D+02 -0.4892599291D-01
  0.2856000000D+02 -0.1344727247D+00
  0.1021000000D+02 -0.3151125777D+00
  0.3838000000D+01 -0.2428578325D+00
  0.7466000000D+00  0.1094382207D+01
 s    1  1.00
  0.2248000000D+00  0.1000000000D+01
 p    3  1.00
  0.1355000000D+02  0.5890567677D-01
  0.2917000000D+01  0.3204611067D+00
  0.7973000000D+00  0.7530420618D+00
 p    1  1.00
  0.2185000000D+00  0.1000000000D+01
 d    1  1.00
  0.8170000000D+00  0.1000000000D+01
  
  8 0
 s    8  1.00
  0.9046000000D+04  0.6996174134D-03
  0.1357000000D+04  0.5386054630D-02
  0.3093000000D+03  0.2739102119D-01
  0.8773000000D+02  0.1031505920D+00
  0.2856000000D+02  0.2785706633D+00
  0.1021000000D+02  0.4482948495D+00
  0.3838000000D+01  0.2780859284D+00
  0.7466000000D+00  0.1543156123D-01
 s    8  1.00
  0.9046000000D+04 -0.3049900960D-03
  0.1357000000D+04 -0.2408026379D-02
  0.3093000000D+03 -0.1194444873D-01
  0.8773000000D+02 -0.4892599291D-01
  0.2856000000D+02 -0.1344727247D+00
  0.1021000000D+02 -0.3151125777D+00
  0.3838000000D+01 -0.2428578325D+00
  0.7466000000D+00  0.1094382207D+01
 s    1  1.00
  0.2248000000D+00  0.1000000000D+01
 p    3  1.00
  0.1355000000D+02  0.5890567677D-01
  0.2917000000D+01  0.3204611067D+00
  0.7973000000D+00  0.7530420618D+00
 p    1  1.00
  0.2185000000D+00  0.1000000000D+01
 d    1  1.00
  0.8170000000D+00  0.1000000000D+01
  
  2 0
 s    8  1.00
  0.6665000000D+04  0.6915839628D-03
  0.1000000000D+04  0.5325796153D-02
  0.2280000000D+03  0.2706072104D-01
  0.6471000000D+02  0.1016568461D+00
  0.2106000000D+02  0.2745748236D+00
  0.7495000000D+01  0.4482943189D+00
  0.2797000000D+01  0.2849026107D+00
  0.5215000000D+00  0.1519485921D-01
 s    8  1.00
  0.6665000000D+04 -0.2932696527D-03
  0.1000000000D+04 -0.2318035474D-02
  0.2280000000D+03 -0.1149978604D-01
  0.6471000000D+02 -0.4682672701D-01
  0.2106000000D+02 -0.1284661688D+00
  0.7495000000D+01 -0.3012662725D+00
  0.2797000000D+01 -0.2556307023D+00
  0.5215000000D+00  0.1093793361D+01
 s    1  1.00
  0.1596000000D+00  0.1000000000D+01
 p    3  1.00
  0.9439000000D+01  0.5697925159D-01
  0.2002000000D+01  0.3132072115D+00
  0.5456000000D+00  0.7603767417D+00
 p    1  1.00
  0.1517000000D+00  0.1000000000D+01
 d    1  1.00
  0.5500000000D+00  0.1000000000D+01
  
  9 0
 s    8  1.00
  0.6665000000D+04  0.6915839628D-03
  0.1000000000D+04  0.5325796153D-02
  0.2280000000D+03  0.2706072104D-01
  0.6471000000D+02  0.1016568461D+00
  0.2106000000D+02  0.2745748236D+00
  0.7495000000D+01  0.4482943189D+00
  0.2797000000D+01  0.2849026107D+00
  0.5215000000D+00  0.1519485921D-01
 s    8  1.00
  0.6665000000D+04 -0.2932696527D-03
  0.1000000000D+04 -0.2318035474D-02
  0.2280000000D+03 -0.1149978604D-01
  0.6471000000D+02 -0.4682672701D-01
  0.2106000000D+02 -0.1284661688D+00
  0.7495000000D+01 -0.3012662725D+00
  0.2797000000D+01 -0.2556307023D+00
  0.5215000000D+00  0.1093793361D+01
 s    1  1.00
  0.1596000000D+00  0.1000000000D+01
 p    3  1.00
  0.9439000000D+01  0.5697925159D-01
  0.2002000000D+01  0.3132072115D+00
  0.5456000000D+00  0.7603767417D+00
 p    1  1.00
  0.1517000000D+00  0.1000000000D+01
 d    1  1.00
  0.5500000000D+00  0.1000000000D+01
  
  3 0
 s    8  1.00
  0.6665000000D+04  0.6915839628D-03
  0.1000000000D+04  0.5325796153D-02
  0.2280000000D+03  0.2706072104D-01
  0.6471000000D+02  0.1016568461D+00
  0.2106000000D+02  0.2745748236D+00
  0.7495000000D+01  0.4482943189D+00
  0.2797000000D+01  0.2849026107D+00
  0.5215000000D+00  0.1519485921D-01
 s    8  1.00
  0.6665000000D+04 -0.2932696527D-03
  0.1000000000D+04 -0.2318035474D-02
  0.2280000000D+03 -0.1149978604D-01
  0.6471000000D+02 -0.4682672701D-01
  0.2106000000D+02 -0.1284661688D+00
  0.7495000000D+01 -0.3012662725D+00
  0.2797000000D+01 -0.2556307023D+00
  0.5215000000D+00  0.1093793361D+01
 s    1  1.00
  0.1596000000D+00  0.1000000000D+01
 p    3  1.00
  0.9439000000D+01  0.5697925159D-01
  0.2002000000D+01  0.3132072115D+00
  0.5456000000D+00  0.7603767417D+00
 p    1  1.00
  0.1517000000D+00  0.1000000000D+01
 d    1  1.00
  0.5500000000D+00  0.1000000000D+01
  
 10 0
 s    8  1.00
  0.6665000000D+04  0.6915839628D-03
  0.1000000000D+04  0.5325796153D-02
  0.2280000000D+03  0.2706072104D-01
  0.6471000000D+02  0.1016568461D+00
  0.2106000000D+02  0.2745748236D+00
  0.7495000000D+01  0.4482943189D+00
  0.2797000000D+01  0.2849026107D+00
  0.5215000000D+00  0.1519485921D-01
 s    8  1.00
  0.6665000000D+04 -0.2932696527D-03
  0.1000000000D+04 -0.2318035474D-02
  0.2280000000D+03 -0.1149978604D-01
  0.6471000000D+02 -0.4682672701D-01
  0.2106000000D+02 -0.1284661688D+00
  0.7495000000D+01 -0.3012662725D+00
  0.2797000000D+01 -0.2556307023D+00
  0.5215000000D+00  0.1093793361D+01
 s    1  1.00
  0.1596000000D+00  0.1000000000D+01
 p    3  1.00
  0.9439000000D+01  0.5697925159D-01
  0.2002000000D+01  0.3132072115D+00
  0.5456000000D+00  0.7603767417D+00
 p    1  1.00
  0.1517000000D+00  0.1000000000D+01
 d    1  1.00
  0.5500000000D+00  0.1000000000D+01
  
  4 0
 s    3  1.00
  0.1301000000D+02  0.3349872639D-01
  0.1962000000D+01  0.2348008012D+00
  0.4446000000D+00  0.8136829579D+00
 s    1  1.00
  0.1220000000D+00  0.1000000000D+01
 p    1  1.00
  0.7270000000D+00  0.1000000000D+01
  
 11 0
 s    3  1.00
  0.1301000000D+02  0.3349872639D-01
  0.1962000000D+01  0.2348008012D+00
  0.4446000000D+00  0.8136829579D+00
 s    1  1.00
  0.1220000000D+00  0.1000000000D+01
 p    1  1.00
  0.7270000000D+00  0.1000000000D+01
  
  5 0
 s    3  1.00
  0.1301000000D+02  0.3349872639D-01
  0.1962000000D+01  0.2348008012D+00
  0.4446000000D+00  0.8136829579D+00
 s    1  1.00
  0.1220000000D+00  0.1000000000D+01
 p    1  1.00
  0.7270000000D+00  0.1000000000D+01
  
 12 0
 s    3  1.00
  0.1301000000D+02  0.3349872639D-01
  0.1962000000D+01  0.2348008012D+00
  0.4446000000D+00  0.8136829579D+00
 s    1  1.00
  0.1220000000D+00  0.1000000000D+01
 p    1  1.00
  0.7270000000D+00  0.1000000000D+01
  
  6 0
 s    3  1.00
  0.1301000000D+02  0.3349872639D-01
  0.1962000000D+01  0.2348008012D+00
  0.4446000000D+00  0.8136829579D+00
 s    1  1.00
  0.1220000000D+00  0.1000000000D+01
 p    1  1.00
  0.7270000000D+00  0.1000000000D+01
  
 13 0
 s    3  1.00
  0.1301000000D+02  0.3349872639D-01
  0.1962000000D+01  0.2348008012D+00
  0.4446000000D+00  0.8136829579D+00
 s    1  1.00
  0.1220000000D+00  0.1000000000D+01
 p    1  1.00
  0.7270000000D+00  0.1000000000D+01
  
  7 0
 s    3  1.00
  0.1301000000D+02  0.3349872639D-01
  0.1962000000D+01  0.2348008012D+00
  0.4446000000D+00  0.8136829579D+00
 s    1  1.00
  0.1220000000D+00  0.1000000000D+01
 p    1  1.00
  0.7270000000D+00  0.1000000000D+01
  
 14 0
 s    3  1.00
  0.1301000000D+02  0.3349872639D-01
  0.1962000000D+01  0.2348008012D+00
  0.4446000000D+00  0.8136829579D+00
 s    1  1.00
  0.1220000000D+00  0.1000000000D+01
 p    1  1.00
  0.7270000000D+00  0.1000000000D+01
 
 
[MO]
 Sym=      1.1
 Ene=     -15.6530
 Spin= Alpha
 Occup=    2.000000
1 0.70764637766711
2 0.000163277439308
3 -0.003197096167799
4 0.000872954159517
5 -0.000439148187550
6 0.000179201944100
7 -0.000914270880728
8 0.000438301573408
9 -0.000174157443123
10 -0.000050339479940
11 -0.000104911474876
12 0.000155250954815
13 -0.000045055964755
14 -0.000095411122439
15 -0.000097064755562
16 0.70764637766711
17 0.000163277439308
18 -0.003197096167799
19 -0.000872954159517
20 0.000439148187550
21 -0.000179201944100
22 0.000914270880728
23 -0.000438301573408
24 0.000174157443123
25 -0.000050339479940
26 -0.000104911474876
27 0.000155250954815
28 -0.000045055964755
29 -0.000095411122439
30 -0.000097064755562
31 -0.000032139200033
32 -0.000083775010411
33 -0.000184442277375
34 0.000035324562989
35 -0.000055338403421
36 -0.000050072617908
37 -0.000192556080983
38 0.000221395367130
39 0.000200545940322
40 0.000004633714297
41 0.000005066117119
42 -0.000009699831416
43 -0.000009321248539
44 0.000011923165335
45 0.000056287312084
46 -0.000032139200033
47 -0.000083775010411
48 -0.000184442277375
49 -0.000035324562989
50 0.000055338403421
51 0.000050072617908
52 0.000192556080983
53 -0.000221395367130
54 -0.000200545940322
55 0.000004633714297
56 0.000005066117119
57 -0.000009699831416
58 -0.000009321248539
59 0.000011923165335
60 0.000056287312084
61 -0.000169722002802
62 -0.000285033811821
63 0.000963839848149
64 -0.000221824023013
65 0.000186565340508
66 -0.000090611584771
67 -0.001133068916872
68 0.000496652320198
69 -0.000023429413041
70 0.000114621088935
71 -0.000027230160431
72 -0.000087390928503
73 -0.000087076336886
74 0.000003598905729
75 -0.000033380866491
76 -0.000169722002802
77 -0.000285033811821
78 0.000963839848149
79 0.000221824023013
80 -0.000186565340508
81 0.000090611584771
82 0.001133068916872
83 -0.000496652320198
84 0.000023429413041
85 0.000114621088935
86 -0.000027230160431
87 -0.000087390928503
88 -0.000087076336886
89 0.000003598905729
90 -0.000033380866491
91 -0.000012049590776
92 0.000059725576284
93 0.000032405975013
94 -0.000061505580309
95 -0.000006187180206
96 -0.000012049590776
97 0.000059725576284
98 -0.000032405975013
99 0.000061505580309
100 0.000006187180206
101 -0.000023171361287
102 -0.000023450767418
103 0.000038992566050
104 -0.000037421995295
105 -0.000048614438551
106 -0.000023171361287
107 -0.000023450767418
108 -0.000038992566050
109 0.000037421995295
110 0.000048614438551
111 0.000020128620156
112 0.000521118501466
113 -0.000063723916556
114 0.000027451602220
115 0.000023504986785
116 0.000020128620156
117 0.000521118501466
118 0.000063723916556
119 -0.000027451602220
120 -0.000023504986785
121 -0.000157463594086
122 0.000102536257956
123 0.000028938420312
124 -0.000030195207248
125 -0.000028272965258
126 -0.000157463594086
127 0.000102536257956
128 -0.000028938420312
129 0.000030195207248
130 0.000028272965258
 Sym=      1.2
 Ene=     -15.6427
 Spin= Alpha
 Occup=    2.000000
1 0.70750112881133
2 -0.008885652892796
3 -0.014390726574595
4 0.001995058496845
5 -0.001237121441246
6 0.000460342862759
7 -0.000370632996574
8 0.000092148977548
9 -0.000132857974929
10 -0.000099952138551
11 -0.000060635365558
12 0.000160587504109
13 0.000011526334430
14 -0.000124213349624
15 -0.000045878407146
16 -0.70750112881133
17 0.008885652892796
18 0.014390726574595
19 0.001995058496845
20 -0.001237121441246
21 0.000460342862759
22 -0.000370632996574
23 0.000092148977548
24 -0.000132857974929
25 0.000099952138551
26 0.000060635365558
27 -0.000160587504109
28 -0.000011526334430
29 0.000124213349624
30 0.000045878407146
31 -0.000094302386438
32 0.000005921216654
33 0.000620415299595
34 -0.000479559009165
35 0.000442362055840
36 0.000243575214646
37 -0.000354401712905
38 0.000343643970386
39 0.000302490430282
40 -0.000090731687219
41 -0.000031545615702
42 0.000122277302921
43 0.000029820359987
44 0.000036989138656
45 -0.000018790001699
46 0.000094302386438
47 -0.000005921216654
48 -0.000620415299595
49 -0.000479559009165
50 0.000442362055840
51 0.000243575214646
52 -0.000354401712905
53 0.000343643970386
54 0.000302490430282
55 0.000090731687219
56 0.000031545615702
57 -0.000122277302921
58 -0.000029820359987
59 -0.000036989138656
60 0.000018790001699
61 -0.000044710955138
62 -0.000321623995106
63 0.001315492325593
64 0.000136496004936
65 -0.000830370786592
66 -0.000423057308286
67 -0.001342635504516
68 0.000496291957417
69 -0.000285161583581
70 -0.000088137268245
71 0.000068446830822
72 0.000019690437423
73 0.000033112063662
74 0.000024373841824
75 0.000003339151171
76 0.000044710955138
77 0.000321623995106
78 -0.001315492325593
79 0.000136496004936
80 -0.000830370786592
81 -0.000423057308286
82 -0.001342635504516
83 0.000496291957417
84 -0.000285161583581
85 0.000088137268245
86 -0.000068446830822
87 -0.000019690437423
88 -0.000033112063662
89 -0.000024373841824
90 -0.000003339151171
91 0.000011020258516
92 -0.000046131731422
93 0.000037452042922
94 -0.000007781998787
95 -0.000046229783923
96 -0.000011020258516
97 0.000046131731422
98 0.000037452042922
99 -0.000007781998787
100 -0.000046229783923
101 -0.000076258213042
102 -0.000054087889916
103 0.000037458541354
104 -0.000019352984216
105 -0.000000806494827
106 0.000076258213042
107 0.000054087889916
108 0.000037458541354
109 -0.000019352984216
110 -0.000000806494827
111 -0.000397621585414
112 -0.000048786374302
113 0.000017856618141
114 0.000015283363748
115 0.000010665193854
116 0.000397621585414
117 0.000048786374302
118 0.000017856618141
119 0.000015283363748
120 0.000010665193854
121 -0.000627420703991
122 -0.000084743307067
123 0.000158936111470
124 -0.000072092252250
125 0.000033509330321
126 0.000627420703991
127 0.000084743307067
128 0.000158936111470
129 -0.000072092252250
130 0.000033509330321
 Sym=      2.1
 Ene=     -11.3276
 Spin= Alpha
 Occup=    2.000000
1 -0.000200707845810
2 -0.000305352220693
3 0.001599262766194
4 -0.000108283419323
5 0.000066332725771
6 -0.000007985576116
7 0.000531474607494
8 -0.000443253646088
9 0.000090084715558
10 -0.000015314218626
11 0.000027126121506
12 -0.000011811902880
13 -0.000037418104440
14 -0.000002149039325
15 -0.000029510542926
16 -0.000200707845810
17 -0.000305352220693
18 0.001599262766194
19 0.000108283419323
20 -0.000066332725771
21 0.000007985576116
22 -0.000531474607494
23 0.000443253646088
24 -0.000090084715558
25 -0.000015314218626
26 0.000027126121506
27 -0.000011811902880
28 -0.000037418104440
29 -0.000002149039325
30 -0.000029510542926
31 0.002362860806849
32 -0.000269110938535
33 0.002509547529239
34 0.000016324736136
35 0.000077768609583
36 0.000040121007763
37 -0.000773259132467
38 0.000373901748252
39 0.001019432933913
40 0.000018856273116
41 -0.000056505821421
42 0.000037649548305
43 -0.000024536409380
44 0.000022909601409
45 -0.000136480721561
46 0.002362860806849
47 -0.000269110938535
48 0.002509547529239
49 -0.000016324736136
50 -0.000077768609583
51 -0.000040121007763
52 0.000773259132467
53 -0.000373901748252
54 -0.001019432933913
55 0.000018856273116
56 -0.000056505821421
57 0.000037649548305
58 -0.000024536409380
59 0.000022909601409
60 -0.000136480721561
61 0.70874757487997
62 0.003121554610934
63 -0.006788248218478
64 -0.000032883488381
65 -0.000036870551192
66 0.000210747778867
67 0.001246338648493
68 0.000485550910669
69 0.001236545555948
70 -0.000088216346331
71 0.000079520712967
72 0.000008695633364
73 0.000392137877413
74 -0.000069175862527
75 0.000155247281353
76 0.70874757487997
77 0.003121554610934
78 -0.006788248218478
79 0.000032883488381
80 0.000036870551192
81 -0.000210747778867
82 -0.001246338648493
83 -0.000485550910669
84 -0.001236545555948
85 -0.000088216346331
86 0.000079520712967
87 0.000008695633364
88 0.000392137877413
89 -0.000069175862527
90 0.000155247281353
91 -0.000128260453565
92 0.000255013097657
93 0.000029004793834
94 0.000064959048250
95 0.000048221236105
96 -0.000128260453565
97 0.000255013097657
98 -0.000029004793834
99 -0.000064959048250
100 -0.000048221236105
101 -0.000158496332425
102 -0.000183316456506
103 0.000006899893862
104 0.000059013150858
105 0.000034721741144
106 -0.000158496332425
107 -0.000183316456506
108 -0.000006899893862
109 -0.000059013150858
110 -0.000034721741144
111 -0.000131128315583
112 0.000125162354883
113 0.000012819541697
114 0.000032463706071
115 -0.000031832199184
116 -0.000131128315583
117 0.000125162354883
118 -0.000012819541697
119 -0.000032463706071
120 0.000031832199184
121 -0.000087642158859
122 0.000842653283087
123 0.000132248940040
124 0.000144943388194
125 0.000099216818792
126 -0.000087642158859
127 0.000842653283087
128 -0.000132248940040
129 -0.000144943388194
130 -0.000099216818792
 Sym=      2.2
 Ene=     -11.3270
 Spin= Alpha
 Occup=    2.000000
1 -0.000128858456114
2 -0.000170755671822
3 0.001243709105488
4 0.000309747725019
5 -0.000176279270306
6 0.000077594180331
7 0.000678189089133
8 -0.000426972538283
9 0.000179023767163
10 0.000028300288942
11 0.000020702033806
12 -0.000049002322748
13 -0.000043810102900
14 0.000029942095772
15 0.000011656900657
16 0.000128858456114
17 0.000170755671822
18 -0.001243709105488
19 0.000309747725019
20 -0.000176279270306
21 0.000077594180331
22 0.000678189089133
23 -0.000426972538283
24 0.000179023767163
25 -0.000028300288942
26 -0.000020702033806
27 0.000049002322748
28 0.000043810102900
29 -0.000029942095772
30 -0.000011656900657
31 0.002667642052732
32 0.000029160237489
33 0.001774825525959
34 0.000013416246533
35 0.000026428122150
36 0.000149611835707
37 -0.000351229501143
38 0.000568193479736
39 0.000553014815610
40 0.000102526662154
41 -0.000047145271979
42 -0.000055381390174
43 0.000013588920228
44 0.000067093319813
45 -0.000015128642967
46 -0.002667642052732
47 -0.000029160237489
48 -0.001774825525959
49 0.000013416246533
50 0.000026428122150
51 0.000149611835707
52 -0.000351229501143
53 0.000568193479736
54 0.000553014815610
55 -0.000102526662154
56 0.000047145271979
57 0.000055381390174
58 -0.000013588920228
59 -0.000067093319813
60 0.000015128642967
61 0.70895090603368
62 0.003369319651332
63 -0.010775132895649
64 -0.000202569853481
65 0.000194757982881
66 -0.000036427118995
67 0.000474028322812
68 0.001293132016540
69 -0.001231647890356
70 -0.000208421042902
71 0.000160821666483
72 0.000047599376419
73 0.000353469579758
74 -0.000036057321977
75 0.000020480045926
76 -0.70895090603368
77 -0.003369319651332
78 0.010775132895649
79 -0.000202569853481
80 0.000194757982881
81 -0.000036427118995
82 0.000474028322812
83 0.001293132016540
84 -0.001231647890356
85 0.000208421042902
86 -0.000160821666483
87 -0.000047599376419
88 -0.000353469579758
89 0.000036057321977
90 -0.000020480045926
91 -0.000105298530293
92 -0.000234692311849
93 0.000020353017455
94 0.000005812720348
95 0.000016958847975
96 0.000105298530293
97 0.000234692311849
98 0.000020353017455
99 0.000005812720348
100 0.000016958847975
101 -0.000076667924947
102 0.000197256741874
103 -0.000007670780481
104 0.000037864730772
105 0.000121971132887
106 0.000076667924947
107 -0.000197256741874
108 -0.000007670780481
109 0.000037864730772
110 0.000121971132887
111 -0.000030738390757
112 0.000192919335797
113 -0.000010631533854
114 0.000004361640723
115 0.000053551377766
116 0.000030738390757
117 -0.000192919335797
118 -0.000010631533854
119 0.000004361640723
120 0.000053551377766
121 0.000153512768411
122 0.000741263569187
123 0.000187232844555
124 0.000240657276319
125 -0.000019995175648
126 -0.000153512768411
127 -0.000741263569187