[Molden Format]
[Molpro variables]
_NUMVAR=  828.0000000000000    
_AVOGAD= 0.6022136736000000E+24
_BOLTZ= 0.1380658000000000E-22
_CLIGHT=  29979245800.00000    
_EV2006= 0.3674930886769165E-01
_EV= 0.3674932534394180E-01
_ENULL= 0.8854187817000000E-11
_KJOULE= 0.3808798324128737E-03
_KJOULE/MOL= 0.3808798324128737E-03
_CM= 0.4556335267302901E-05
_CM-1= 0.4556335267302901E-05
_DEB2SI= 0.3335641000000000E-29
_AMU2AU=  1822.888390000000    
_KCAL= 0.1593601117815568E-02
_KCAL/MOL= 0.1593601117815568E-02
_KELVIN2006= 0.3166828861084835E-05
_KELVIN= 0.3166814820820034E-05
_JOULE= 0.4359748200000000E-17
_HERTZ2006= 0.1519829850815779E-15
_HERTZ= 0.1519829846011223E-15
_HZ2006= 0.1519829850815779E-15
_HZ= 0.1519829846011223E-15
_JPCAL=  4.184000000000000    
_PLANCK= 0.6626075540000000E-33
_TOA2006= 0.5291772490000000    
_TOA= 0.5291772090000000    
_TOANG2006= 0.5291772490000000    
_TOANG= 0.5291772090000000    
_TORAD= 0.1745329251994330E-01
_TOCM=  219474.6306700000    
_TODEBYE=  2.541580000000000    
_TOEV2006=  27.21139610000000    
_TOE= 0.4803242000000000E-09
_TOEV=  27.21138390000000    
_TOHERTZ2006=  6579683899900000.    
_TOHERTZ=  6579683920700000.    
_TOHZ2006=  6579683899900000.    
_TOHZ=  6579683920700000.    
_TOK2006=  315773.3000000000    
_TOK=  315774.7000000000    
_TOKCAL=  627.5096000000000    
_TOKELVIN2006=  315773.3000000000    
_TOKELVIN=  315774.7000000000    
_TOKJ=  2625.500000000000    
_TOKJOULE=  2625.500000000000    
_TOKG= 0.1660565586000000E-26
_ANG2006=  1.889725988578923    
_ANG=  1.889726131421507    
_ANGSTROM2006=  1.889725988578923    
_ANGSTROM=  1.889726131421507    
_RPAREF=  0.000000000000000    
_RPADISS=  0.000000000000000    
_IGNORE_UNDEF=  2.000000000000000    
_STRICTCHECK=  0.000000000000000    
_SEW_ONEEL=  0.000000000000000    
_CPPDONE=FALSE
_DKROLL_DONE=  0.000000000000000    
_FOCKDONE=TRUE
_GRADONE=FALSE
_HESSDONE=FALSE
_INTDONE=TRUE
_SCFDONE=TRUE
_MODUL_BLOCK=FALSE
_MODUL_CUDA=FALSE
_MODUL_SLATER=FALSE
_MODUL_MRCC=FALSE
_MODUL_NBO6=FALSE
_MODUL_NECI=TRUE
_MODUL_AIMS=TRUE
_MRCC_EXEC=
_FITC_AO_SAVED=FALSE
_FITC_MO_SAVED=FALSE
_SHARED_FS=TRUE
_LSTYP=SEWARD
_INTYP=INTS
_GEOMTYP=ZMAT
_GRADTYP=ALASKA
_DIRECT=FALSE
_DKHO= -1.000000000000000    
_SYNCM=  0.000000000000000    
_BASIS=USERDEF
_ZORIENT=  1.000000000000000    
_NELEC=  58.00000000000000    
!SPIN=  0.000000000000000    
_QSDSTEP=  0.000000000000000    
_QSDIRC=  0.000000000000000    
_PROGRAM=MATROP
_CPUSTEP=  1.659999999999968    
_SYSSTEP= 0.4000000000000270E-01
_WALLSTEP= 0.2000000000000000    
!DFSCF=  0.000000000000000    
!SCSGRD=  0.000000000000000    
_BASINP=  610.0000000000000    
_CPUTOT=  263.2500000000000    
_DFTEXFAC=  1.000000000000000    
_DMX=  0.000000000000000    
_DMY=  0.000000000000000    
_DMZ=  0.000000000000000    
_DMX_SCF=  0.000000000000000    
_DMY_SCF= -1.075299248127586    
_DMZ_SCF= 0.7004600211734964    
_EHOMO=-0.3229767027581733    
_ELUMO= 0.1116440973141388    
_ENUC=  360.8014524679945    
_EPS1= -20.62856035526385    
_EPS2=-0.6791348858759416    
_GRADEXFAC=  9999.000000000000    
_GRADMETHOD=TRUE
_NMRMETHOD=  0.000000000000000    
!GRID_FREEZE= -1.000000000000000    
_ITERATIONS=  0.000000000000000    
_LASTNELEC=  10.00000000000000    
_LASTSPIN=  2.000000000000000    
_LASTSYM=  1.000000000000000    
_MPP_PROG=  0.000000000000000    
_NPROC_MPP=  1.000000000000000    
_NPROC_MPPX=  1.000000000000000    
_NPROC_SMP=  16.00000000000000    
_NUMSTEP=  0.000000000000000    
_ORBITAL=  2141.200000000000    
_PI=  3.141592653589793    
_SEIG_MIN= 0.1419611248759524E-02
_SEWPROP=TRUE
_STATUS=  0.000000000000000    
_SYSTOT=  21.06000000000000    
_VERSION=  2012001.000000000    
_WALLTOT=  149.1100000000000    
_DATE=24-Jan-19
_LASTORB=MCSCF
_MACHINE=Linux-4.9.0-8-amd64/nympha18.meta.zcu.cz(x86_64) (16 PROC) 64 bit serial version
_OUTPUT=/auto/brno2/home/masiz4am/git/UKRmol-in/tests/suite/Cs_target_CAS1/molpro.xml
_PGROUP=Cs
_TIME=16:20:09
_LIBMOL=/afs/ics.muni.cz/software/molpro-2012.1/molprop_2012_1_Linux_x86_64_i8/lib/
!VIBCNT=  0.000000000000000    
!RGHFCNT=  0.000000000000000    
!SURFREC=  0.000000000000000    
!POLYREC=  0.000000000000000    
!DIPREC=  0.000000000000000    
!VSCFREC=  0.000000000000000    
!VCIREC=  0.000000000000000    
!PVCIREC=  0.000000000000000    
!VMP2REC=  0.000000000000000    
!VMCSCFREC=  0.000000000000000    
!VMRCIREC=  0.000000000000000    
!VIBINFO=  0.000000000000000    
!GAREC=  0.000000000000000    
!SCFORB=  21002.00000000000    
!MCORB=  21412.00000000000    
!NEWMOL= -1.000000000000000    
!NEWSYM= -1.000000000000000    
_SLFILES=slscratch
_NGSSTO=  9.000000000000000    
_SIN=SIN
_COS=COS
_TAN=TAN
_ACOS=ACOS
_ASIN=ASIN
_ATAN=ATAN
_COSH=COSH
_SINH=SINH
_TANH=TANH
_ABS=ABS
_MOD=MOD
_ERF=ERF
_REFC=REFC
_ERFC=ERFC
_HYPOT=HYPOT
_J0=J0
_J1=J1
_JN=JN
_GAMMA=GAMMA
_LGAMMA=LGAMMA
_Y0=Y0
_Y1=Y1
_YN=YN
_EXP=EXP
_LOG=LOG
_LOG10=LOG10
_SQRT=SQRT
_INT=INT
_NINT=NINT
_MAX=MAX
_MIN=MIN
_COSMO=  0.000000000000000    
_COSMOIT=  0.000000000000000    
_COSMOES=  0.000000000000000    
_COSMOEDS=  0.000000000000000    
_COSMOEC=  0.000000000000000    
_COSMOEDCORR=  0.000000000000000    
_FEPSI=  1.000000000000000    
_SL_IsMM=  0.000000000000000    
_SL_NSYM=  2.000000000000000    
_SL_System_BitSw=  0.000000000000000    
_SL_Unique_atoms=  0.000000000000000    
_SL_GRAD=  0.000000000000000    
_SL_MAXUPD_Hess=  5.000000000000000    
_SL_N_PRINT_COD=  5.000000000000000    
_SL_PRINT_CODES=  0.000000000000000    
_SL_BasType=  0.000000000000000    
_SL_Energy_Pred=  0.000000000000000    
_SL_New_Coords=  0.000000000000000    
_SL_Total_Nuclea=  0.000000000000000    
_SL_Highest_Mltp=  0.000000000000000    
_SL_Ref_Geom=  0.000000000000000    
_SL_Symmetry_ope=  1.000000000000000    
_SL_agrad=  0.000000000000000    
_SL_GrdMax=  0.000000000000000    
_SL_GrdNorm=  0.000000000000000    
_SL_GrdRMS=  0.000000000000000    
!LATTICE= -1.000000000000000    
!NEWLATTICE=  0.000000000000000    
!LATGRAD_VAR=FALSE
!SEW_LATTICE=  1.000000000000000    
!LOCAL=  0.000000000000000    
!SAVEDOM= -1.000000000000000    
!RESTDOM= -1.000000000000000    
!SAVEDOM_HF= -1.000000000000000    
!RESTDOM_HF= -1.000000000000000    
!HESSREC=  0.000000000000000    
!FREQREC=  0.000000000000000    
!NMODREC=  0.000000000000000    
!GTASKS=  0.000000000000000    
!HTASKS=  0.000000000000000    
!THRCHG= 0.1000000000000000    
!DEBUG= -1.000000000000000    
!CFIT_CPHF=  0.000000000000000    
!RDOMAUX_CPHF=  3.000000000000000    
!THRAO_CPHF= 0.1000000000000000E-09
!THRMO_CPHF= 0.1000000000000000E-08
!THROV_CPHF= 0.1000000000000000E-11
!THRSW_CPHF= 0.1000000000000000E-09
!THRPROD_CPHF= 0.1000000000000000E-08
!THRAOPR_CPHF= 0.1000000000000000E-11
!CFIT_SCFGRD=  0.000000000000000    
!RDOMAUX_SCFGRD=  5.000000000000000    
!THRAO_SCFGRD= 0.1000000000000000E-09
!THRMO_SCFGRD= 0.1000000000000000E-08
!THROV_SCFGRD= 0.1000000000000000E-11
!THRSW_SCFGRD= 0.1000000000000000E-09
!THRPROD_SCFGRD= 0.1000000000000000E-08
!THRAOPR_SCFGRD= 0.1000000000000000E-11
!LOCFIT_SCF=  0.000000000000000    
!LOCFIT_MP2= -1.000000000000000    
_RIDOM=  0.000000000000000    
!CC2_METHOD=  0.000000000000000    
_BASIS2006=FALSE
_SVDDEL= -1.000000000000000    
_SVDDELA= -1.000000000000000    
_SVDDELP= -1.000000000000000    
_SVDDELF= -1.000000000000000    
_SVDDELS= -1.000000000000000    
_SVDDEL_ABS= -1.000000000000000    
_SVDDELA_ABS= -1.000000000000000    
_SVDDELP_ABS= -1.000000000000000    
_SVDDELF_ABS= -1.000000000000000    
_SVDDELS_ABS= -1.000000000000000    
_MAXBASIS=  0.000000000000000    
!OPT_CONICAL=  0.000000000000000    
!CLEARSP_JGRID=  0.000000000000000    
_4EXT_NDISKS=  1.000000000000000    
!ZMP=  0.000000000000000    
_MAXIT_ZMP=  500.0000000000000    
_MAXDIS_ZMP=  100.0000000000000    
_ACCU_ZMP=  14.00000000000000    
_SHIFTA_ZMP= -100.0000000000000    
!EMBEDFLAG=  1.000000000000000    
!EMBED=FALSE
!EMBED_F12=FALSE
!EMBEDNUC=  0.000000000000000    
_EMBEDENERGY=  0.000000000000000    
_KSPACETIME=  0.000000000000000    
_RSPACETIME=  0.000000000000000    
!EMBED_DFC=FALSE
!NUM_VOIDS=  0.000000000000000    
_IBODY=  0.000000000000000    
_EMBE_TOTAL=  0.000000000000000    
_EMBE_HF=  0.000000000000000    
_EMBE_CORR=  0.000000000000000    
!EDFT=  0.000000000000000    
_IFASTLATGRAD=  0.000000000000000    
_SINDEX=  0.000000000000000    
M_NAME=CASSCF(10,8)
M_CLOSED=  22.00000000000000    
M_OCC=  25.00000000000000    
GX1=  0.000000000000000    
GY1=  2.390300000000000    
GZ1= 0.7342000000000000    
GX2=  0.000000000000000    
GY2=  2.328300000000000    
GZ2= -2.003500000000000    
GX3=  0.000000000000000    
GY3=  0.000000000000000    
GZ3=  1.878600000000000    
GX4=  0.000000000000000    
GY4= 0.1009000000000000    
GZ4= -3.216300000000000    
GX5=  0.000000000000000    
GY5=  4.309300000000000    
GZ5=  2.017300000000000    
GX6=  0.000000000000000    
GY6= -2.151500000000000    
GZ6= -1.929400000000000    
GX7=  0.000000000000000    
GY7= -2.309400000000000    
GZ7= 0.6820000000000001    
GX8=  0.000000000000000    
GY8= -4.331100000000000    
GZ8=  1.789900000000000    
GX9=  0.000000000000000    
GY9=  4.109200000000000    
GZ9= -2.981200000000000    
GX10=  0.000000000000000    
GY10=-0.7290000000000001E-01
GZ10=  3.780800000000000    
GX11=  0.000000000000000    
GY11=-0.4140000000000000E-01
GZ11= -5.251700000000000    
GX12=  0.000000000000000    
GY12= -3.821000000000000    
GZ12=  2.829700000000000    
_TRDMX=  0.000000000000000    
_TRDMY= 0.6218085341755744    
_TRDMZ= -1.155852706357579    
_QMXX= 0.8201868163425843    
_TRQMXX=-0.4045474318686146    
_QMYY= -11.06366990827217    
_TRQMYY=-0.1613111313126967    
_QMZZ=  10.24348309192948    
_TRQMZZ= 0.5658585631813096    
_QMXY=  0.000000000000000    
_TRQMXY=  0.000000000000000    
_QMXZ=  0.000000000000000    
_TRQMXZ=  0.000000000000000    
_QMYZ= -12.94294105478271    
_TRQMYZ=  1.944861027819621    
_QMRR= -103.0645164738996    
_TRQMRR= 0.9682910053012912    
[Atoms] Angs
C     1    6         0.0000000000        1.2648922827        0.3885219068
C     2    6         0.0000000000        1.2320832957       -1.0602065382
N     3    7         0.0000000000        0.0000000000        0.9941123048
C     4    6         0.0000000000        0.0533939804       -1.7019926573
O     5    8         0.0000000000        2.2803833467        1.0675091837
N     6    7         0.0000000000       -1.1385247652       -1.0209945070
C     7    6         0.0000000000       -1.2220818465        0.3608988565
O     8    8         0.0000000000       -2.2919194099        0.9471742864
H     9    1         0.0000000000        2.1744949872       -1.5775830955
H    10    1         0.0000000000       -0.0385770185        2.0007131918
H    11    1         0.0000000000       -0.0219079365       -2.7790799485
H    12    1         0.0000000000       -2.0219861156        1.4974127483
[GTO]
  1 0
 s    8  1.00
  0.6665000000D+04  0.6915839628D-03
  0.1000000000D+04  0.5325796153D-02
  0.2280000000D+03  0.2706072104D-01
  0.6471000000D+02  0.1016568461D+00
  0.2106000000D+02  0.2745748236D+00
  0.7495000000D+01  0.4482943189D+00
  0.2797000000D+01  0.2849026107D+00
  0.5215000000D+00  0.1519485921D-01
 s    8  1.00
  0.6665000000D+04 -0.2932696527D-03
  0.1000000000D+04 -0.2318035474D-02
  0.2280000000D+03 -0.1149978604D-01
  0.6471000000D+02 -0.4682672701D-01
  0.2106000000D+02 -0.1284661688D+00
  0.7495000000D+01 -0.3012662725D+00
  0.2797000000D+01 -0.2556307023D+00
  0.5215000000D+00  0.1093793361D+01
 s    1  1.00
  0.1596000000D+00  0.1000000000D+01
 p    3  1.00
  0.9439000000D+01  0.5697925159D-01
  0.2002000000D+01  0.3132072115D+00
  0.5456000000D+00  0.7603767417D+00
 p    1  1.00
  0.1517000000D+00  0.1000000000D+01
 d    1  1.00
  0.5500000000D+00  0.1000000000D+01
  
  2 0
 s    8  1.00
  0.6665000000D+04  0.6915839628D-03
  0.1000000000D+04  0.5325796153D-02
  0.2280000000D+03  0.2706072104D-01
  0.6471000000D+02  0.1016568461D+00
  0.2106000000D+02  0.2745748236D+00
  0.7495000000D+01  0.4482943189D+00
  0.2797000000D+01  0.2849026107D+00
  0.5215000000D+00  0.1519485921D-01
 s    8  1.00
  0.6665000000D+04 -0.2932696527D-03
  0.1000000000D+04 -0.2318035474D-02
  0.2280000000D+03 -0.1149978604D-01
  0.6471000000D+02 -0.4682672701D-01
  0.2106000000D+02 -0.1284661688D+00
  0.7495000000D+01 -0.3012662725D+00
  0.2797000000D+01 -0.2556307023D+00
  0.5215000000D+00  0.1093793361D+01
 s    1  1.00
  0.1596000000D+00  0.1000000000D+01
 p    3  1.00
  0.9439000000D+01  0.5697925159D-01
  0.2002000000D+01  0.3132072115D+00
  0.5456000000D+00  0.7603767417D+00
 p    1  1.00
  0.1517000000D+00  0.1000000000D+01
 d    1  1.00
  0.5500000000D+00  0.1000000000D+01
  
  3 0
 s    8  1.00
  0.9046000000D+04  0.6996174134D-03
  0.1357000000D+04  0.5386054630D-02
  0.3093000000D+03  0.2739102119D-01
  0.8773000000D+02  0.1031505920D+00
  0.2856000000D+02  0.2785706633D+00
  0.1021000000D+02  0.4482948495D+00
  0.3838000000D+01  0.2780859284D+00
  0.7466000000D+00  0.1543156123D-01
 s    8  1.00
  0.9046000000D+04 -0.3049900960D-03
  0.1357000000D+04 -0.2408026379D-02
  0.3093000000D+03 -0.1194444873D-01
  0.8773000000D+02 -0.4892599291D-01
  0.2856000000D+02 -0.1344727247D+00
  0.1021000000D+02 -0.3151125777D+00
  0.3838000000D+01 -0.2428578325D+00
  0.7466000000D+00  0.1094382207D+01
 s    1  1.00
  0.2248000000D+00  0.1000000000D+01
 p    3  1.00
  0.1355000000D+02  0.5890567677D-01
  0.2917000000D+01  0.3204611067D+00
  0.7973000000D+00  0.7530420618D+00
 p    1  1.00
  0.2185000000D+00  0.1000000000D+01
 d    1  1.00
  0.8170000000D+00  0.1000000000D+01
  
  4 0
 s    8  1.00
  0.6665000000D+04  0.6915839628D-03
  0.1000000000D+04  0.5325796153D-02
  0.2280000000D+03  0.2706072104D-01
  0.6471000000D+02  0.1016568461D+00
  0.2106000000D+02  0.2745748236D+00
  0.7495000000D+01  0.4482943189D+00
  0.2797000000D+01  0.2849026107D+00
  0.5215000000D+00  0.1519485921D-01
 s    8  1.00
  0.6665000000D+04 -0.2932696527D-03
  0.1000000000D+04 -0.2318035474D-02
  0.2280000000D+03 -0.1149978604D-01
  0.6471000000D+02 -0.4682672701D-01
  0.2106000000D+02 -0.1284661688D+00
  0.7495000000D+01 -0.3012662725D+00
  0.2797000000D+01 -0.2556307023D+00
  0.5215000000D+00  0.1093793361D+01
 s    1  1.00
  0.1596000000D+00  0.1000000000D+01
 p    3  1.00
  0.9439000000D+01  0.5697925159D-01
  0.2002000000D+01  0.3132072115D+00
  0.5456000000D+00  0.7603767417D+00
 p    1  1.00
  0.1517000000D+00  0.1000000000D+01
 d    1  1.00
  0.5500000000D+00  0.1000000000D+01
  
  5 0
 s    8  1.00
  0.1172000000D+05  0.7096459465D-03
  0.1759000000D+04  0.5467272292D-02
  0.4008000000D+03  0.2782311861D-01
  0.1137000000D+03  0.1047477397D+00
  0.3703000000D+02  0.2829208464D+00
  0.1327000000D+02  0.4484952387D+00
  0.5025000000D+01  0.2708168852D+00
  0.1013000000D+01  0.1545029161D-01
 s    8  1.00
  0.1172000000D+05 -0.3144434117D-03
  0.1759000000D+04 -0.2482137681D-02
  0.4008000000D+03 -0.1231635538D-01
  0.1137000000D+03 -0.5053891734D-01
  0.3703000000D+02 -0.1393849033D+00
  0.1327000000D+02 -0.3250774948D+00
  0.5025000000D+01 -0.2298483076D+00
  0.1013000000D+01  0.1095379347D+01
 s    1  1.00
  0.3023000000D+00  0.1000000000D+01
 p    3  1.00
  0.1770000000D+02  0.6267916628D-01
  0.3854000000D+01  0.3335365659D+00
  0.1046000000D+01  0.7412396416D+00
 p    1  1.00
  0.2753000000D+00  0.1000000000D+01
 d    1  1.00
  0.1185000000D+01  0.1000000000D+01
  
  6 0
 s    8  1.00
  0.9046000000D+04  0.6996174134D-03
  0.1357000000D+04  0.5386054630D-02
  0.3093000000D+03  0.2739102119D-01
  0.8773000000D+02  0.1031505920D+00
  0.2856000000D+02  0.2785706633D+00
  0.1021000000D+02  0.4482948495D+00
  0.3838000000D+01  0.2780859284D+00
  0.7466000000D+00  0.1543156123D-01
 s    8  1.00
  0.9046000000D+04 -0.3049900960D-03
  0.1357000000D+04 -0.2408026379D-02
  0.3093000000D+03 -0.1194444873D-01
  0.8773000000D+02 -0.4892599291D-01
  0.2856000000D+02 -0.1344727247D+00
  0.1021000000D+02 -0.3151125777D+00
  0.3838000000D+01 -0.2428578325D+00
  0.7466000000D+00  0.1094382207D+01
 s    1  1.00
  0.2248000000D+00  0.1000000000D+01
 p    3  1.00
  0.1355000000D+02  0.5890567677D-01
  0.2917000000D+01  0.3204611067D+00
  0.7973000000D+00  0.7530420618D+00
 p    1  1.00
  0.2185000000D+00  0.1000000000D+01
 d    1  1.00
  0.8170000000D+00  0.1000000000D+01
  
  7 0
 s    8  1.00
  0.6665000000D+04  0.6915839628D-03
  0.1000000000D+04  0.5325796153D-02
  0.2280000000D+03  0.2706072104D-01
  0.6471000000D+02  0.1016568461D+00
  0.2106000000D+02  0.2745748236D+00
  0.7495000000D+01  0.4482943189D+00
  0.2797000000D+01  0.2849026107D+00
  0.5215000000D+00  0.1519485921D-01
 s    8  1.00
  0.6665000000D+04 -0.2932696527D-03
  0.1000000000D+04 -0.2318035474D-02
  0.2280000000D+03 -0.1149978604D-01
  0.6471000000D+02 -0.4682672701D-01
  0.2106000000D+02 -0.1284661688D+00
  0.7495000000D+01 -0.3012662725D+00
  0.2797000000D+01 -0.2556307023D+00
  0.5215000000D+00  0.1093793361D+01
 s    1  1.00
  0.1596000000D+00  0.1000000000D+01
 p    3  1.00
  0.9439000000D+01  0.5697925159D-01
  0.2002000000D+01  0.3132072115D+00
  0.5456000000D+00  0.7603767417D+00
 p    1  1.00
  0.1517000000D+00  0.1000000000D+01
 d    1  1.00
  0.5500000000D+00  0.1000000000D+01
  
  8 0
 s    8  1.00
  0.1172000000D+05  0.7096459465D-03
  0.1759000000D+04  0.5467272292D-02
  0.4008000000D+03  0.2782311861D-01
  0.1137000000D+03  0.1047477397D+00
  0.3703000000D+02  0.2829208464D+00
  0.1327000000D+02  0.4484952387D+00
  0.5025000000D+01  0.2708168852D+00
  0.1013000000D+01  0.1545029161D-01
 s    8  1.00
  0.1172000000D+05 -0.3144434117D-03
  0.1759000000D+04 -0.2482137681D-02
  0.4008000000D+03 -0.1231635538D-01
  0.1137000000D+03 -0.5053891734D-01
  0.3703000000D+02 -0.1393849033D+00
  0.1327000000D+02 -0.3250774948D+00
  0.5025000000D+01 -0.2298483076D+00
  0.1013000000D+01  0.1095379347D+01
 s    1  1.00
  0.3023000000D+00  0.1000000000D+01
 p    3  1.00
  0.1770000000D+02  0.6267916628D-01
  0.3854000000D+01  0.3335365659D+00
  0.1046000000D+01  0.7412396416D+00
 p    1  1.00
  0.2753000000D+00  0.1000000000D+01
 d    1  1.00
  0.1185000000D+01  0.1000000000D+01
  
  9 0
 s    3  1.00
  0.1301000000D+02  0.3349872639D-01
  0.1962000000D+01  0.2348008012D+00
  0.4446000000D+00  0.8136829579D+00
 s    1  1.00
  0.1220000000D+00  0.1000000000D+01
 p    1  1.00
  0.7270000000D+00  0.1000000000D+01
  
 10 0
 s    3  1.00
  0.1301000000D+02  0.3349872639D-01
  0.1962000000D+01  0.2348008012D+00
  0.4446000000D+00  0.8136829579D+00
 s    1  1.00
  0.1220000000D+00  0.1000000000D+01
 p    1  1.00
  0.7270000000D+00  0.1000000000D+01
  
 11 0
 s    3  1.00
  0.1301000000D+02  0.3349872639D-01
  0.1962000000D+01  0.2348008012D+00
  0.4446000000D+00  0.8136829579D+00
 s    1  1.00
  0.1220000000D+00  0.1000000000D+01
 p    1  1.00
  0.7270000000D+00  0.1000000000D+01
  
 12 0
 s    3  1.00
  0.1301000000D+02  0.3349872639D-01
  0.1962000000D+01  0.2348008012D+00
  0.4446000000D+00  0.8136829579D+00
 s    1  1.00
  0.1220000000D+00  0.1000000000D+01
 p    1  1.00
  0.7270000000D+00  0.1000000000D+01
 
 
[MO]
 Sym=      1.1
 Ene=     -20.6286
 Spin= Alpha
 Occup=    2.000000
1 -0.000103156132213
2 -0.000191078273108
3 -0.000054540087643
4 0.0
5 0.000070635561034
6 -0.000013993301276
7 0.0
8 -0.000201961597933
9 0.000102687427369
10 -0.000021504277011
11 -0.000028207285732
12 0.000049711562743
13 0.0
14 0.0
15 -0.000068287723049
16 -0.000051950385547
17 -0.000100607141317
18 -0.000073865636859
19 0.0
20 0.000031715023261
21 -0.000003590870085
22 0.0
23 0.000062034112154
24 0.000082986763378
25 -0.000006176011385
26 -0.000000249720624
27 0.000006425732009
28 0.0
29 0.0
30 0.000000816175882
31 -0.000089321595648
32 -0.000178215104604
33 0.000624534982657
34 0.0
35 0.000055985247539
36 0.000068247429651
37 0.0
38 0.000156639802025
39 -0.000941478005371
40 -0.000026824499428
41 -0.000151127093766
42 0.000177951593194
43 0.0
44 0.0
45 0.000054949596398
46 -0.000128641106999
47 -0.000232410012390
48 0.000329681486562
49 0.0
50 0.000039456144305
51 -0.000064774296641
52 0.0
53 -0.000020812888064
54 0.000540451346345
55 -0.000056057425582
56 0.000073275965151
57 -0.000017218539568
58 0.0
59 0.0
60 -0.000003108305487
61 -0.000008830132731
62 -0.000012879618795
63 0.000115079119239
64 0.0
65 -0.000015026650503
66 -0.000007449578428
67 0.0
68 0.000004269403314
69 -0.000060745687286
70 -0.000002059328662
71 -0.000004095323611
72 0.000006154652273
73 0.0
74 0.0
75 0.000015337237308
76 -0.000119879803520
77 -0.000237547925170
78 0.000772788581273
79 0.0
80 0.000003821236808
81 -0.000066593196095
82 0.0
83 0.000534378080767
84 0.000225308385172
85 -0.000011984400843
86 0.000048534000176
87 -0.000036549599332
88 0.0
89 0.0
90 0.000177317691727
91 0.000271604968966
92 0.000425454612627
93 0.001662374507699
94 0.0
95 -0.000118651674398
96 0.000090910807808
97 0.0
98 -0.003019939154346
99 0.002000298743056
100 0.000103389332398
101 -0.000358080066154
102 0.000254690733756
103 0.0
104 0.0
105 0.000378605659429
106 1.00287935073575
107 0.005485882540467
108 -0.004679801819542
109 0.0
110 0.002939640489588
111 0.002238865078487
112 0.0
113 -0.001363519125047
114 0.001454298610841
115 -0.000491588071691
116 -0.000158907332281
117 0.000650495403972
118 0.0
119 0.0
120 0.000756790615638
121 0.000005872062385
122 0.000051166796690
123 0.0
124 -0.000015567022517
125 0.000004778422103
126 0.000127434959164
127 0.000117569147000
128 0.0
129 0.000026430454262
130 0.000056954427767
131 0.000062435629136
132 0.000261446106800
133 0.0
134 0.000022233251086
135 0.000013791412004
136 -0.004306292016182
137 -0.000540189462930
138 0.0
139 0.000840273410423
140 0.002133232160425
 Sym=      2.1
 Ene=     -20.4926
 Spin= Alpha
 Occup=    2.000000
1 0.000306527420061
2 0.000689951227719
3 0.001116877098441
4 0.0
5 0.000331834216102
6 0.000203470277277
7 0.0
8 0.003658884454101
9 0.001792309219827
10 0.000226630624562
11 -0.000338262014631
12 0.000111631390069
13 0.0
14 0.0
15 -0.000605121984190
16 -0.000080067953210
17 -0.000181261870980
18 0.001739722626689
19 0.0
20 0.000058186508161
21 -0.000107278788113
22 0.0
23 -0.001844100645935
24 -0.000135513648195
25 -0.000114723292052
26 0.000192995811904
27 -0.000078272519852
28 0.0
29 0.0
30 -0.000418488148782
31 -0.000130523200417
32 -0.000289555322263
33 0.001017174184932
34 0.0
35 -0.000149539664794
36 0.000091060962438
37 0.0
38 0.000217698162092
39 -0.000825661686742
40 -0.000036123372997
41 -0.000164343087606
42 0.000200466460603
43 0.0
44 0.0
45 -0.000051451764473
46 -0.000006090199769
47 0.000005087014810
48 -0.001251916746423
49 0.0
50 0.000009854974977
51 -0.000014692123518
52 0.0
53 -0.000549087450007
54 0.000094866461244
55 -0.000032326429047
56 0.000166547592848
57 -0.000134221163801
58 0.0
59 0.0
60 -0.000045397798265
61 1.00143353277524
62 0.002329567120957
63 -0.006911423839139
64 0.0
65 -0.001919297490318
66 -0.001195322484484
67 0.0
68 0.001194266909077
69 0.000874995037342
70 -0.000242017613838
71 0.000153995367340
72 0.000088022246499
73 0.0
74 0.0
75 0.000078206112168
76 0.000004876861336
77 -0.000000375062515
78 -0.000297903601561
79 0.0
80 0.000007920629707
81 -0.000011474442035
82 0.0
83 -0.000129234522690
84 0.000066267228160
85 0.000018743306696
86 0.000011428118228
87 -0.000030171424924
88 0.0
89 0.0
90 0.000042866026228
91 -0.000114564274480
92 -0.000189421919321
93 0.000156245101678
94 0.0
95 -0.000017285983504
96 0.000008981385607
97 0.0
98 0.000486414047420
99 0.000011208216333
100 -0.000040157225484
101 -0.000065849438182
102 0.000106006663667
103 0.0
104 0.0
105 0.000084226324551
106 -0.000007274266969
107 -0.000017138783828
108 0.000154055499677
109 0.0
110 0.000003955068481
111 -0.000001389918701
112 0.0
113 0.000030544193880
114 -0.000174983727449
115 0.000003055747457
116 0.000007677262696
117 -0.000010733010153
118 0.0
119 0.0
120 -0.000026947825063
121 -0.000133218008443
122 0.000360559711564
123 0.0
124 0.000186141530031
125 -0.000059318955691
126 0.000033562299371
127 -0.000004591511609
128 0.0
129 -0.000063333497478
130 0.000088575908272
131 0.000154679560457
132 0.000112607660049
133 0.0
134 0.000010513917073
135 0.000051775216807
136 0.000039533807243
137 0.000189535080949
138 0.0
139 -0.000013434720514
140 0.000012119508363
 Sym=      3.1
 Ene=     -15.6457
 Spin= Alpha
 Occup=    2.000000
1 0.000051139269053
2 0.000032693880148
3 0.002365492678297
4 0.0
5 -0.000060683599480
6 0.000050082153703
7 0.0
8 -0.002997327114699
9 0.001036937189457
10 0.000010004691929
11 -0.000022292906521
12 0.000012288214593
13 0.0
14 0.0
15 0.000249652796657
16 -0.000000030531281
17 -0.000007539588356
18 -0.001377843192288
19 0.0
20 0.000001932633032
21 -0.000086122478018
22 0.0
23 0.002172517714625
24 0.000718374496886
25 -0.000056506889560
26 0.000050438049562
27 0.000006068839998
28 0.0
29 0.0
30 0.000058275526054
31 1.00203426193778
32 0.003702790864983
33 -0.010102266600922
34 0.0
35 -0.000337093102751
36 0.000029736369811
37 0.0
38 -0.000068108120474
39 0.001893364465778
40 -0.000076984857757
41 -0.000094553259454
42 0.000171538117211
43 0.0
44 0.0
45 0.000009415374972
46 -0.000057241541018
47 -0.000092682412087
48 0.002635002520825
49 0.0
50 -0.000028325957915
51 -0.000005124800971
52 0.0
53 0.000762375016427
54 0.000621068925707
55 -0.000081192755346
56 0.000016304919602
57 0.000064887835743
58 0.0
59 0.0
60 0.000004661392988
61 -0.000083376662077
62 -0.000161882767686
63 0.000451413710038
64 0.0
65 -0.000022543297437
66 0.000032314439986
67 0.0
68 0.000365281352428
69 -0.000386455425091
70 -0.000000290101280
71 -0.000064733577450
72 0.000065023678730
73 0.0
74 0.0
75 -0.000014912918811
76 -0.000453833338457
77 -0.000086312905328
78 -0.000245816471306
79 0.0
80 0.000028702742333
81 -0.000083220668242
82 0.0
83 -0.000762775990091
84 0.000101844486811
85 -0.000040557176467
86 0.000038743522461
87 0.000001813654005
88 0.0
89 0.0
90 -0.000064647873067
91 0.000088702031959
92 0.000069466166786
93 0.002503742650877
94 0.0
95 0.000086353887376
96 0.000057675622684
97 0.0
98 0.002224895573854
99 0.000974361850132
100 0.000067968960223
101 -0.000125455213141
102 0.000057486252919
103 0.0
104 0.0
105 -0.000392278302115
106 -0.000035843554121
107 -0.000096773834749
108 -0.000049211604384
109 0.0
110 -0.000057613141184
111 0.000038812748938
112 0.0
113 -0.000424668873659
114 -0.000577044884263
115 0.000026390390750
116 -0.000075471986120
117 0.000049081595371
118 0.0
119 0.0
120 -0.000042486875090
121 -0.000167268227063
122 -0.000363925746760
123 0.0
124 -0.000063242049199
125 -0.000048926310102
126 -0.000208175789368
127 -0.000070529079971
128 0.0
129 -0.000016218150474
130 0.000586700331001
131 -0.000120717961295
132 0.000094877264434
133 0.0
134 -0.000038752691172
135 -0.000039826996238
136 0.000233663280018
137 0.000116224074057
138 0.0
139 -0.000013459499437
140 0.000049569265646
 Sym=      4.1
 Ene=     -15.6221
 Spin= Alpha
 Occup=    2.000000
1 -0.000038072816152
2 -0.000070301396400
3 0.002214562549558
4 0.0
5 -0.000021231010081
6 0.000040870040604
7 0.0
8 -0.000047040701496
9 -0.001056004628832
10 -0.000045667270221
11 0.000012503364119
12 0.000033163906101
13 0.0
14 0.0
15 0.000039532306047
16 0.000063962665208
17 0.000102312396681
18 -0.002792360428732
19 0.0
20 0.000107610056439
21 0.000022282759228
22 0.0
23 0.001188121611307
24 -0.001752346171040
25 -0.000023219965187
26 -0.000139411863652
27 0.000162631828839
28 0.0
29 0.0
30 0.000036746415842
31 0.000336137077223
32 -0.000157707165311
33 0.000063088880433
34 0.0
35 0.000099175571983
36 0.000037660504694
37 0.0
38 -0.000551626278848
39 0.000684390288397
40 -0.000091783924621
41 0.000071048152565
42 0.000020735772056
43 0.0
44 0.0
45 -0.000074207140552
46 0.000088430585940
47 0.000055681201735
48 0.003410372602717
49 0.0
50 -0.000026174260419
51 -0.000014610972205
52 0.0
53 -0.000982869596825
54 0.002596604814352
55 0.000030752410419
56 -0.000377268073607
57 0.000346515663188
58 0.0
59 0.0
60 0.000341062010195
61 -0.000001338179813
62 -0.000005392624957
63 -0.000108815964091
64 0.0
65 0.000028080768110
66 -0.000009661606945
67 0.0
68 -0.000009855040273
69 0.000187953229736
70 0.000000956992608
71 0.000003022580301
72 -0.000003979572910
73 0.0
74 0.0
75 -0.000016746285981
76 1.00189646965417
77 0.003176097160245
78 -0.010311654474205
79 0.0
80 0.001167587086170
81 0.000840474492836
82 0.0
83 -0.002032726852832
84 -0.001702730993533
85 -0.000068435126128
86 -0.000034470263394
87 0.000102905389522
88 0.0
89 0.0
90 -0.000188018151663
91 0.000137964538250
92 0.000129508716006
93 0.002226276154962
94 0.0
95 0.000044672712131
96 -0.000106659490890
97 0.0
98 0.000759143357911
99 -0.003149372701539
100 0.000144111403604
101 0.000301586529010
102 -0.000445697932614
103 0.0
104 0.0
105 -0.000059451546956
106 -0.000056927026828
107 -0.000126454182436
108 0.000588691043918
109 0.0
110 -0.000112174820838
111 0.000089782601391
112 0.0
113 0.000297886308096
114 0.000458003565706
115 -0.000021694567450
116 0.000001285011775
117 0.000020409555675
118 0.0
119 0.0
120 0.000041595949483
121 -0.000059469264715
122 -0.000506088475576
123 0.0
124 -0.000009174498528
125 0.000095339196571
126 -0.000174599571007
127 0.000116241944835
128 0.0
129 0.000002728724438
130 -0.000004565961213
131 -0.000134622264064
132 0.000638325378623
133 0.0
134 0.000142821266849
135 -0.000188145157328
136 -0.000094084334714
137 0.000509462171365
138 0.0
139 0.000244482428906
140 -0.000033719716080
 Sym=      5.1
 Ene=     -11.3876
 Spin= Alpha
 Occup=    2.000000
1 -0.000326540019015
2 -0.000429767057090
3 0.002876038725464
4 0.0
5 0.000033282347492
6 -0.000019014890612
7 0.0
8 -0.001278255254992
9 -0.002509689472956
10 -0.000180438631124
11 0.000274590910183
12 -0.000094152279059
13 0.0
14 0.0
15 0.000148031677249
16 0.000190148449179
17 0.000325758179980
18 -0.006033563771833
19 0.0
20 0.000049845632326
21 -0.000000162279386
22 0.0
23 0.002361986293253
24 -0.001345171777835
25 0.000109691019876
26 -0.000116904356411
27 0.000007213336535
28 0.0
29 0.0