[Molden Format]
[Molpro variables]
_NUMVAR=  825.0000000000000    
_AVOGAD= 0.6022136736000000E+24
_BOLTZ= 0.1380658000000000E-22
_CLIGHT=  29979245800.00000    
_EV2006= 0.3674930886769165E-01
_EV= 0.3674932534394180E-01
_ENULL= 0.8854187817000000E-11
_KJOULE= 0.3808798324128737E-03
_KJOULE/MOL= 0.3808798324128737E-03
_CM= 0.4556335267302901E-05
_CM-1= 0.4556335267302901E-05
_DEB2SI= 0.3335641000000000E-29
_AMU2AU=  1822.888390000000    
_KCAL= 0.1593601117815568E-02
_KCAL/MOL= 0.1593601117815568E-02
_KELVIN2006= 0.3166828861084835E-05
_KELVIN= 0.3166814820820034E-05
_JOULE= 0.4359748200000000E-17
_HERTZ2006= 0.1519829850815779E-15
_HERTZ= 0.1519829846011223E-15
_HZ2006= 0.1519829850815779E-15
_HZ= 0.1519829846011223E-15
_JPCAL=  4.184000000000000    
_PLANCK= 0.6626075540000000E-33
_TOA2006= 0.5291772490000000    
_TOA= 0.5291772090000000    
_TOANG2006= 0.5291772490000000    
_TOANG= 0.5291772090000000    
_TORAD= 0.1745329251994330E-01
_TOCM=  219474.6306700000    
_TODEBYE=  2.541580000000000    
_TOEV2006=  27.21139610000000    
_TOE= 0.4803242000000000E-09
_TOEV=  27.21138390000000    
_TOHERTZ2006=  6579683899900000.    
_TOHERTZ=  6579683920700000.    
_TOHZ2006=  6579683899900000.    
_TOHZ=  6579683920700000.    
_TOK2006=  315773.3000000000    
_TOK=  315774.7000000000    
_TOKCAL=  627.5096000000000    
_TOKELVIN2006=  315773.3000000000    
_TOKELVIN=  315774.7000000000    
_TOKJ=  2625.500000000000    
_TOKJOULE=  2625.500000000000    
_TOKG= 0.1660565586000000E-26
_ANG2006=  1.889725988578923    
_ANG=  1.889726131421507    
_ANGSTROM2006=  1.889725988578923    
_ANGSTROM=  1.889726131421507    
_RPAREF=  0.000000000000000    
_RPADISS=  0.000000000000000    
_IGNORE_UNDEF=  2.000000000000000    
_STRICTCHECK=  0.000000000000000    
_SEW_ONEEL=  0.000000000000000    
_CPPDONE=FALSE
_DKROLL_DONE=  0.000000000000000    
_FOCKDONE=TRUE
_GRADONE=FALSE
_HESSDONE=FALSE
_INTDONE=TRUE
_SCFDONE=TRUE
_MODUL_BLOCK=FALSE
_MODUL_CUDA=FALSE
_MODUL_SLATER=FALSE
_MODUL_MRCC=FALSE
_MODUL_NBO6=FALSE
_MODUL_NECI=TRUE
_MODUL_AIMS=TRUE
_MRCC_EXEC=
_FITC_AO_SAVED=FALSE
_FITC_MO_SAVED=FALSE
_SHARED_FS=TRUE
_LSTYP=SEWARD
_INTYP=INTS
_GEOMTYP=ZMAT
_GRADTYP=ALASKA
_DIRECT=FALSE
_DKHO= -1.000000000000000    
_SYNCM=  0.000000000000000    
_BASIS=USERDEF
_ZORIENT=  1.000000000000000    
_NELEC=  42.00000000000000    
!SPIN=  0.000000000000000    
_QSDSTEP=  0.000000000000000    
_QSDIRC=  0.000000000000000    
_PROGRAM=MATROP
_CPUSTEP= 0.2000000000001023E-01
_SYSSTEP= 0.1000000000000068E-01
_WALLSTEP= 0.2100000000000000    
!DFSCF=  0.000000000000000    
!SCSGRD=  0.000000000000000    
_BASINP=  610.0000000000000    
_CPUTOT=  84.85000000000001    
_DFTEXFAC=  1.000000000000000    
_DMX=  0.000000000000000    
_DMY=  0.000000000000000    
_DMZ=  0.000000000000000    
_DMX_SCF=  0.000000000000000    
_DMY_SCF=  0.000000000000000    
_DMZ_SCF=-0.8718533514593072    
_EHOMO=-0.3439228265685456    
_ELUMO= 0.1154928063200286    
_ENUC=  205.5266160318501    
_EPS1= -15.58920409766211    
_EPS2=-0.5281330378927190    
_EPS3= -11.31054107631545    
_EPS4=-0.2820610537170497    
_GRADEXFAC=  9999.000000000000    
_GRADMETHOD=TRUE
_NMRMETHOD=  0.000000000000000    
!GRID_FREEZE= -1.000000000000000    
_ITERATIONS=  0.000000000000000    
_LASTNELEC=  4.000000000000000    
_LASTSPIN=  2.000000000000000    
_LASTSYM=  1.000000000000000    
_MPP_PROG=  0.000000000000000    
_NPROC_MPP=  1.000000000000000    
_NPROC_MPPX=  1.000000000000000    
_NPROC_SMP=  16.00000000000000    
_NUMSTEP=  0.000000000000000    
_ORBITAL=  2141.200000000000    
_PI=  3.141592653589793    
_SEIG_MIN= 0.8148194445626768E-03
_SEWPROP=TRUE
_STATUS=  0.000000000000000    
_SYSTOT=  3.990000000000000    
_VERSION=  2012001.000000000    
_WALLTOT=  42.19000000000000    
_DATE=24-Jan-19
_LASTORB=MCSCF
_MACHINE=Linux-4.9.0-8-amd64/nympha18.meta.zcu.cz(x86_64) (16 PROC) 64 bit serial version
_OUTPUT=/auto/brno2/home/masiz4am/git/UKRmol-in/tests/suite/C2v_scattering_CC/molpro.xml
_PGROUP=C2v
_TIME=16:45:35
_LIBMOL=/afs/ics.muni.cz/software/molpro-2012.1/molprop_2012_1_Linux_x86_64_i8/lib/
!VIBCNT=  0.000000000000000    
!RGHFCNT=  0.000000000000000    
!SURFREC=  0.000000000000000    
!POLYREC=  0.000000000000000    
!DIPREC=  0.000000000000000    
!VSCFREC=  0.000000000000000    
!VCIREC=  0.000000000000000    
!PVCIREC=  0.000000000000000    
!VMP2REC=  0.000000000000000    
!VMCSCFREC=  0.000000000000000    
!VMRCIREC=  0.000000000000000    
!VIBINFO=  0.000000000000000    
!GAREC=  0.000000000000000    
!SCFORB=  21002.00000000000    
!MCORB=  21412.00000000000    
!NEWMOL= -1.000000000000000    
!NEWSYM= -1.000000000000000    
_SLFILES=slscratch
_NGSSTO=  9.000000000000000    
_SIN=SIN
_COS=COS
_TAN=TAN
_ACOS=ACOS
_ASIN=ASIN
_ATAN=ATAN
_COSH=COSH
_SINH=SINH
_TANH=TANH
_ABS=ABS
_MOD=MOD
_ERF=ERF
_REFC=REFC
_ERFC=ERFC
_HYPOT=HYPOT
_J0=J0
_J1=J1
_JN=JN
_GAMMA=GAMMA
_LGAMMA=LGAMMA
_Y0=Y0
_Y1=Y1
_YN=YN
_EXP=EXP
_LOG=LOG
_LOG10=LOG10
_SQRT=SQRT
_INT=INT
_NINT=NINT
_MAX=MAX
_MIN=MIN
_COSMO=  0.000000000000000    
_COSMOIT=  0.000000000000000    
_COSMOES=  0.000000000000000    
_COSMOEDS=  0.000000000000000    
_COSMOEC=  0.000000000000000    
_COSMOEDCORR=  0.000000000000000    
_FEPSI=  1.000000000000000    
_SL_IsMM=  0.000000000000000    
_SL_NSYM=  4.000000000000000    
_SL_System_BitSw=  0.000000000000000    
_SL_Unique_atoms=  0.000000000000000    
_SL_GRAD=  0.000000000000000    
_SL_MAXUPD_Hess=  5.000000000000000    
_SL_N_PRINT_COD=  5.000000000000000    
_SL_PRINT_CODES=  0.000000000000000    
_SL_BasType=  0.000000000000000    
_SL_Energy_Pred=  0.000000000000000    
_SL_New_Coords=  0.000000000000000    
_SL_Total_Nuclea=  0.000000000000000    
_SL_Highest_Mltp=  0.000000000000000    
_SL_Ref_Geom=  0.000000000000000    
_SL_Symmetry_ope=  1.000000000000000    
_SL_agrad=  0.000000000000000    
_SL_GrdMax=  0.000000000000000    
_SL_GrdNorm=  0.000000000000000    
_SL_GrdRMS=  0.000000000000000    
!LATTICE= -1.000000000000000    
!NEWLATTICE=  0.000000000000000    
!LATGRAD_VAR=FALSE
!SEW_LATTICE=  1.000000000000000    
!LOCAL=  0.000000000000000    
!SAVEDOM= -1.000000000000000    
!RESTDOM= -1.000000000000000    
!SAVEDOM_HF= -1.000000000000000    
!RESTDOM_HF= -1.000000000000000    
!HESSREC=  0.000000000000000    
!FREQREC=  0.000000000000000    
!NMODREC=  0.000000000000000    
!GTASKS=  0.000000000000000    
!HTASKS=  0.000000000000000    
!THRCHG= 0.1000000000000000    
!DEBUG= -1.000000000000000    
!CFIT_CPHF=  0.000000000000000    
!RDOMAUX_CPHF=  3.000000000000000    
!THRAO_CPHF= 0.1000000000000000E-09
!THRMO_CPHF= 0.1000000000000000E-08
!THROV_CPHF= 0.1000000000000000E-11
!THRSW_CPHF= 0.1000000000000000E-09
!THRPROD_CPHF= 0.1000000000000000E-08
!THRAOPR_CPHF= 0.1000000000000000E-11
!CFIT_SCFGRD=  0.000000000000000    
!RDOMAUX_SCFGRD=  5.000000000000000    
!THRAO_SCFGRD= 0.1000000000000000E-09
!THRMO_SCFGRD= 0.1000000000000000E-08
!THROV_SCFGRD= 0.1000000000000000E-11
!THRSW_SCFGRD= 0.1000000000000000E-09
!THRPROD_SCFGRD= 0.1000000000000000E-08
!THRAOPR_SCFGRD= 0.1000000000000000E-11
!LOCFIT_SCF=  0.000000000000000    
!LOCFIT_MP2= -1.000000000000000    
_RIDOM=  0.000000000000000    
!CC2_METHOD=  0.000000000000000    
_BASIS2006=FALSE
_SVDDEL= -1.000000000000000    
_SVDDELA= -1.000000000000000    
_SVDDELP= -1.000000000000000    
_SVDDELF= -1.000000000000000    
_SVDDELS= -1.000000000000000    
_SVDDEL_ABS= -1.000000000000000    
_SVDDELA_ABS= -1.000000000000000    
_SVDDELP_ABS= -1.000000000000000    
_SVDDELF_ABS= -1.000000000000000    
_SVDDELS_ABS= -1.000000000000000    
_MAXBASIS=  0.000000000000000    
!OPT_CONICAL=  0.000000000000000    
!CLEARSP_JGRID=  0.000000000000000    
_4EXT_NDISKS=  1.000000000000000    
!ZMP=  0.000000000000000    
_MAXIT_ZMP=  500.0000000000000    
_MAXDIS_ZMP=  100.0000000000000    
_ACCU_ZMP=  14.00000000000000    
_SHIFTA_ZMP= -100.0000000000000    
!EMBEDFLAG=  1.000000000000000    
!EMBED=FALSE
!EMBED_F12=FALSE
!EMBEDNUC=  0.000000000000000    
_EMBEDENERGY=  0.000000000000000    
_KSPACETIME=  0.000000000000000    
_RSPACETIME=  0.000000000000000    
!EMBED_DFC=FALSE
!NUM_VOIDS=  0.000000000000000    
_IBODY=  0.000000000000000    
_EMBE_TOTAL=  0.000000000000000    
_EMBE_HF=  0.000000000000000    
_EMBE_CORR=  0.000000000000000    
!EDFT=  0.000000000000000    
_IFASTLATGRAD=  0.000000000000000    
_SINDEX=  0.000000000000000    
M_NAME=CASSCF(4,9)
M_CLOSED=  11.00000000000000    
M_OCC=  14.00000000000000    
GX1=  0.000000000000000    
GY1=  0.000000000000000    
GZ1=  2.696450217000000    
GX2=  0.000000000000000    
GY2= -2.157500324000000    
GZ2=  1.366649938000000    
GX3=  0.000000000000000    
GY3= -2.266726495000000    
GZ3= -1.275187193000000    
GX4=  0.000000000000000    
GY4=  0.000000000000000    
GZ4= -2.628609049000000    
GX5=  0.000000000000000    
GY5= -3.891324050000000    
GZ5=  2.474029451000000    
GX6=  0.000000000000000    
GY6= -4.081997416000000    
GZ6= -2.232900397000000    
GX7=  0.000000000000000    
GY7=  0.000000000000000    
GZ7= -4.682552381000000    
GX8=  0.000000000000000    
GY8=  2.266726495000000    
GZ8= -1.275187193000000    
GX9=  0.000000000000000    
GY9=  2.157500324000000    
GZ9=  1.366649938000000    
GX10=  0.000000000000000    
GY10=  4.081997416000000    
GZ10= -2.232900397000000    
GX11=  0.000000000000000    
GY11=  3.891324050000000    
GZ11=  2.474029451000000    
_TRDMX=  0.000000000000000    
_TRDMY=  0.000000000000000    
_TRDMZ= -1.102166830759220    
_QMXX= -5.207447705221654    
_TRQMXX= 0.4095763618727946E-02
_QMYY=  6.670175581998521    
_TRQMYY=  1.870806663459903    
_QMZZ= -1.462727876776853    
_TRQMZZ= -1.874902427078631    
_QMXY=  0.000000000000000    
_TRQMXY=  0.000000000000000    
_QMXZ=  0.000000000000000    
_TRQMXZ=  0.000000000000000    
_QMYZ=  0.000000000000000    
_TRQMYZ=  0.000000000000000    
_QMRR= -74.38996259039425    
_TRQMRR=-0.4380309787690895E-01
[Atoms] Angs
N     1    7         0.0000000000        0.0000000000        1.4269000000
C     2    6         0.0000000000       -1.1416999999        0.7231999999
C     3    6         0.0000000000       -1.1995000002       -0.6747999997
C     4    6         0.0000000000        0.0000000000       -1.3910000001
H     5    1         0.0000000000       -2.0592000001        1.3091999999
H     6    1         0.0000000000       -2.1600999997       -1.1816000001
H     7    1         0.0000000000        0.0000000000       -2.4779000000
C     8    6         0.0000000000        1.1995000002       -0.6747999997
C     9    6         0.0000000000        1.1416999999        0.7231999999
H    10    1         0.0000000000        2.1600999997       -1.1816000001
H    11    1         0.0000000000        2.0592000001        1.3091999999
[GTO]
  1 0
 s    8  1.00
  0.9046000000D+04  0.6996174134D-03
  0.1357000000D+04  0.5386054630D-02
  0.3093000000D+03  0.2739102119D-01
  0.8773000000D+02  0.1031505920D+00
  0.2856000000D+02  0.2785706633D+00
  0.1021000000D+02  0.4482948495D+00
  0.3838000000D+01  0.2780859284D+00
  0.7466000000D+00  0.1543156123D-01
 s    8  1.00
  0.9046000000D+04 -0.3049900960D-03
  0.1357000000D+04 -0.2408026379D-02
  0.3093000000D+03 -0.1194444873D-01
  0.8773000000D+02 -0.4892599291D-01
  0.2856000000D+02 -0.1344727247D+00
  0.1021000000D+02 -0.3151125777D+00
  0.3838000000D+01 -0.2428578325D+00
  0.7466000000D+00  0.1094382207D+01
 s    1  1.00
  0.2248000000D+00  0.1000000000D+01
 p    3  1.00
  0.1355000000D+02  0.5890567677D-01
  0.2917000000D+01  0.3204611067D+00
  0.7973000000D+00  0.7530420618D+00
 p    1  1.00
  0.2185000000D+00  0.1000000000D+01
 d    1  1.00
  0.8170000000D+00  0.1000000000D+01
  
  2 0
 s    8  1.00
  0.6665000000D+04  0.6915839628D-03
  0.1000000000D+04  0.5325796153D-02
  0.2280000000D+03  0.2706072104D-01
  0.6471000000D+02  0.1016568461D+00
  0.2106000000D+02  0.2745748236D+00
  0.7495000000D+01  0.4482943189D+00
  0.2797000000D+01  0.2849026107D+00
  0.5215000000D+00  0.1519485921D-01
 s    8  1.00
  0.6665000000D+04 -0.2932696527D-03
  0.1000000000D+04 -0.2318035474D-02
  0.2280000000D+03 -0.1149978604D-01
  0.6471000000D+02 -0.4682672701D-01
  0.2106000000D+02 -0.1284661688D+00
  0.7495000000D+01 -0.3012662725D+00
  0.2797000000D+01 -0.2556307023D+00
  0.5215000000D+00  0.1093793361D+01
 s    1  1.00
  0.1596000000D+00  0.1000000000D+01
 p    3  1.00
  0.9439000000D+01  0.5697925159D-01
  0.2002000000D+01  0.3132072115D+00
  0.5456000000D+00  0.7603767417D+00
 p    1  1.00
  0.1517000000D+00  0.1000000000D+01
 d    1  1.00
  0.5500000000D+00  0.1000000000D+01
  
  9 0
 s    8  1.00
  0.6665000000D+04  0.6915839628D-03
  0.1000000000D+04  0.5325796153D-02
  0.2280000000D+03  0.2706072104D-01
  0.6471000000D+02  0.1016568461D+00
  0.2106000000D+02  0.2745748236D+00
  0.7495000000D+01  0.4482943189D+00
  0.2797000000D+01  0.2849026107D+00
  0.5215000000D+00  0.1519485921D-01
 s    8  1.00
  0.6665000000D+04 -0.2932696527D-03
  0.1000000000D+04 -0.2318035474D-02
  0.2280000000D+03 -0.1149978604D-01
  0.6471000000D+02 -0.4682672701D-01
  0.2106000000D+02 -0.1284661688D+00
  0.7495000000D+01 -0.3012662725D+00
  0.2797000000D+01 -0.2556307023D+00
  0.5215000000D+00  0.1093793361D+01
 s    1  1.00
  0.1596000000D+00  0.1000000000D+01
 p    3  1.00
  0.9439000000D+01  0.5697925159D-01
  0.2002000000D+01  0.3132072115D+00
  0.5456000000D+00  0.7603767417D+00
 p    1  1.00
  0.1517000000D+00  0.1000000000D+01
 d    1  1.00
  0.5500000000D+00  0.1000000000D+01
  
  3 0
 s    8  1.00
  0.6665000000D+04  0.6915839628D-03
  0.1000000000D+04  0.5325796153D-02
  0.2280000000D+03  0.2706072104D-01
  0.6471000000D+02  0.1016568461D+00
  0.2106000000D+02  0.2745748236D+00
  0.7495000000D+01  0.4482943189D+00
  0.2797000000D+01  0.2849026107D+00
  0.5215000000D+00  0.1519485921D-01
 s    8  1.00
  0.6665000000D+04 -0.2932696527D-03
  0.1000000000D+04 -0.2318035474D-02
  0.2280000000D+03 -0.1149978604D-01
  0.6471000000D+02 -0.4682672701D-01
  0.2106000000D+02 -0.1284661688D+00
  0.7495000000D+01 -0.3012662725D+00
  0.2797000000D+01 -0.2556307023D+00
  0.5215000000D+00  0.1093793361D+01
 s    1  1.00
  0.1596000000D+00  0.1000000000D+01
 p    3  1.00
  0.9439000000D+01  0.5697925159D-01
  0.2002000000D+01  0.3132072115D+00
  0.5456000000D+00  0.7603767417D+00
 p    1  1.00
  0.1517000000D+00  0.1000000000D+01
 d    1  1.00
  0.5500000000D+00  0.1000000000D+01
  
  8 0
 s    8  1.00
  0.6665000000D+04  0.6915839628D-03
  0.1000000000D+04  0.5325796153D-02
  0.2280000000D+03  0.2706072104D-01
  0.6471000000D+02  0.1016568461D+00
  0.2106000000D+02  0.2745748236D+00
  0.7495000000D+01  0.4482943189D+00
  0.2797000000D+01  0.2849026107D+00
  0.5215000000D+00  0.1519485921D-01
 s    8  1.00
  0.6665000000D+04 -0.2932696527D-03
  0.1000000000D+04 -0.2318035474D-02
  0.2280000000D+03 -0.1149978604D-01
  0.6471000000D+02 -0.4682672701D-01
  0.2106000000D+02 -0.1284661688D+00
  0.7495000000D+01 -0.3012662725D+00
  0.2797000000D+01 -0.2556307023D+00
  0.5215000000D+00  0.1093793361D+01
 s    1  1.00
  0.1596000000D+00  0.1000000000D+01
 p    3  1.00
  0.9439000000D+01  0.5697925159D-01
  0.2002000000D+01  0.3132072115D+00
  0.5456000000D+00  0.7603767417D+00
 p    1  1.00
  0.1517000000D+00  0.1000000000D+01
 d    1  1.00
  0.5500000000D+00  0.1000000000D+01
  
  4 0
 s    8  1.00
  0.6665000000D+04  0.6915839628D-03
  0.1000000000D+04  0.5325796153D-02
  0.2280000000D+03  0.2706072104D-01
  0.6471000000D+02  0.1016568461D+00
  0.2106000000D+02  0.2745748236D+00
  0.7495000000D+01  0.4482943189D+00
  0.2797000000D+01  0.2849026107D+00
  0.5215000000D+00  0.1519485921D-01
 s    8  1.00
  0.6665000000D+04 -0.2932696527D-03
  0.1000000000D+04 -0.2318035474D-02
  0.2280000000D+03 -0.1149978604D-01
  0.6471000000D+02 -0.4682672701D-01
  0.2106000000D+02 -0.1284661688D+00
  0.7495000000D+01 -0.3012662725D+00
  0.2797000000D+01 -0.2556307023D+00
  0.5215000000D+00  0.1093793361D+01
 s    1  1.00
  0.1596000000D+00  0.1000000000D+01
 p    3  1.00
  0.9439000000D+01  0.5697925159D-01
  0.2002000000D+01  0.3132072115D+00
  0.5456000000D+00  0.7603767417D+00
 p    1  1.00
  0.1517000000D+00  0.1000000000D+01
 d    1  1.00
  0.5500000000D+00  0.1000000000D+01
  
  5 0
 s    3  1.00
  0.1301000000D+02  0.3349872639D-01
  0.1962000000D+01  0.2348008012D+00
  0.4446000000D+00  0.8136829579D+00
 s    1  1.00
  0.1220000000D+00  0.1000000000D+01
 p    1  1.00
  0.7270000000D+00  0.1000000000D+01
  
 11 0
 s    3  1.00
  0.1301000000D+02  0.3349872639D-01
  0.1962000000D+01  0.2348008012D+00
  0.4446000000D+00  0.8136829579D+00
 s    1  1.00
  0.1220000000D+00  0.1000000000D+01
 p    1  1.00
  0.7270000000D+00  0.1000000000D+01
  
  6 0
 s    3  1.00
  0.1301000000D+02  0.3349872639D-01
  0.1962000000D+01  0.2348008012D+00
  0.4446000000D+00  0.8136829579D+00
 s    1  1.00
  0.1220000000D+00  0.1000000000D+01
 p    1  1.00
  0.7270000000D+00  0.1000000000D+01
  
 10 0
 s    3  1.00
  0.1301000000D+02  0.3349872639D-01
  0.1962000000D+01  0.2348008012D+00
  0.4446000000D+00  0.8136829579D+00
 s    1  1.00
  0.1220000000D+00  0.1000000000D+01
 p    1  1.00
  0.7270000000D+00  0.1000000000D+01
  
  7 0
 s    3  1.00
  0.1301000000D+02  0.3349872639D-01
  0.1962000000D+01  0.2348008012D+00
  0.4446000000D+00  0.8136829579D+00
 s    1  1.00
  0.1220000000D+00  0.1000000000D+01
 p    1  1.00
  0.7270000000D+00  0.1000000000D+01
 
 
[MO]
 Sym=      1.1
 Ene=     -15.5892
 Spin= Alpha
 Occup=    2.000000
1 1.00195148048655
2 0.003278372731719
3 -0.010339567036922
4 0.0
5 0.0
6 -0.002213431894826
7 0.0
8 0.0
9 0.003273138015000
10 -0.000288666809015
11 0.000282290995590
12 0.000006375813426
13 0.0
14 0.0
15 0.0
16 0.000138664735640
17 0.000117611487056
18 0.004496710177379
19 0.0
20 -0.000008675863611
21 -0.000012714470053
22 0.0
23 0.002819338740509
24 -0.000726840413843
25 0.000120075277238
26 -0.000222733673910
27 0.000102658396672
28 0.0
29 0.0
30 -0.000614826755928
31 0.000138664735640
32 0.000117611487056
33 0.004496710177379
34 0.0
35 0.000008675863611
36 -0.000012714470053
37 0.0
38 -0.002819338740509
39 -0.000726840413843
40 0.000120075277238
41 -0.000222733673910
42 0.000102658396672
43 0.0
44 0.0
45 0.000614826755928
46 0.000115805242476
47 0.000179374112517
48 -0.004026151956696
49 0.0
50 -0.000030177934469
51 -0.000092236758913
52 0.0
53 -0.002823035556275
54 -0.000880407137504
55 0.000024932287911
56 0.000004497845670
57 -0.000029430133581
58 0.0
59 0.0
60 -0.000233674343246
61 0.000115805242476
62 0.000179374112517
63 -0.004026151956696
64 0.0
65 0.000030177934469
66 -0.000092236758913
67 0.0
68 0.002823035556275
69 -0.000880407137504
70 0.000024932287911
71 0.000004497845670
72 -0.000029430133581
73 0.0
74 0.0
75 0.000233674343246
76 -0.000214825571050
77 -0.000377406807967
78 0.005000779527502
79 0.0
80 0.0
81 -0.000060654367846
82 0.0
83 0.0
84 0.002366590026085
85 -0.000098513945103
86 -0.000047288844105
87 0.000145802789209
88 0.0
89 0.0
90 0.0
91 -0.000126277077186
92 0.000613334573118
93 0.0
94 -0.000232027947413
95 -0.000048654837501
96 -0.000126277077186
97 0.000613334573118
98 0.0
99 0.000232027947413
100 -0.000048654837501
101 -0.000085035789147
102 -0.000771290435468
103 0.0
104 0.000118473048333
105 -0.000017824441922
106 -0.000085035789147
107 -0.000771290435468
108 0.0
109 -0.000118473048333
110 -0.000017824441922
111 -0.000073420223149
112 0.000542920630278
113 0.0
114 0.0
115 -0.000095241972241
 Sym=      1.3
 Ene=     -11.3105
 Spin= Alpha
 Occup=    2.000000
1 0.0
2 0.0
3 0.0
4 0.0
5 -0.000250820129628
6 0.0
7 0.0
8 0.002359484498815
9 0.0
10 0.0
11 0.0
12 0.0
13 0.0
14 0.0
15 -0.000156361483765
16 0.70856126544436
17 0.003085480467858
18 -0.005666979731485
19 0.0
20 0.000319442775879
21 0.000039162339852
22 0.0
23 0.000290972689684
24 0.003175322818826
25 -0.000460830565645
26 0.000142828646763
27 0.000318001918882
28 0.0
29 0.0
30 0.000081698090947
31 -0.70856126544436
32 -0.003085480467858
33 0.005666979731485
34 0.0
35 0.000319442775879
36 -0.000039162339852
37 0.0
38 0.000290972689684
39 -0.003175322818826
40 0.000460830565645
41 -0.000142828646763
42 -0.000318001918882
43 0.0
44 0.0
45 0.000081698090947
46 0.010124363096760
47 -0.000151277928319
48 0.001780143948921
49 0.0
50 0.000050222745077
51 -0.000069050417147
52 0.0
53 -0.000863594380386
54 0.002699894086264
55 0.000249014758488
56 -0.000075113552204
57 -0.000173901206285
58 0.0
59 0.0
60 0.000002946698170
61 -0.010124363096760
62 0.000151277928319
63 -0.001780143948921
64 0.0
65 0.000050222745077
66 0.000069050417147
67 0.0
68 -0.000863594380386
69 -0.002699894086264
70 -0.000249014758488
71 0.000075113552204
72 0.000173901206285
73 0.0
74 0.0
75 0.000002946698170
76 0.0
77 0.0
78 0.0
79 0.0
80 -0.000017018863840
81 0.0
82 0.0
83 -0.002229129149627
84 0.0
85 0.0
86 0.0
87 0.0
88 0.0
89 0.0
90 -0.000101098234164
91 -0.000311849052187
92 0.000230211861103
93 0.0
94 -0.000321644450336
95 -0.000003006553514
96 0.000311849052187
97 -0.000230211861103
98 0.0
99 -0.000321644450336
100 0.000003006553514
101 0.000023519478394
102 0.000180291708201
103 0.0
104 0.000116191556976
105 -0.000021787764984
106 -0.000023519478394
107 -0.000180291708201
108 0.0
109 0.000116191556976
110 0.000021787764984
111 0.0
112 0.0
113 0.0
114 0.000059266093009
115 0.0
 Sym=      2.1
 Ene=     -11.3105
 Spin= Alpha
 Occup=    2.000000
1 0.000145099036064
2 0.000986664189747
3 -0.004952590973460
4 0.0
5 0.0
6 -0.000062302595996
7 0.0
8 0.0
9 0.002119188329003
10 0.000509366495346
11 -0.000409651973268
12 -0.000099714522078
13 0.0
14 0.0
15 0.0
16 0.70833209558843
17 0.002730817231539
18 -0.000653396762728
19 0.0
20 0.000388321201977
21 0.000093134053950
22 0.0
23 0.002555785674354
24 -0.000686675736390
25 -0.000729095152125
26 0.000429687881472
27 0.000299407270653
28 0.0
29 0.0
30 0.000139011439211
31 0.70833209558843
32 0.002730817231539
33 -0.000653396762728
34 0.0
35 -0.000388321201977
36 0.000093134053950
37 0.0
38 -0.002555785674354
39 -0.000686675736390
40 -0.000729095152125
41 0.000429687881472
42 0.000299407270653
43 0.0
44 0.0
45 -0.000139011439211
46 0.010113735393494
47 0.000154511296445
48 -0.004070783635374
49 0.0
50 0.000012842127039
51 -0.000082593166008
52 0.0
53 -0.003144575095875
54 -0.000561614436118
55 0.000387056394822
56 -0.000116650925451
57 -0.000270405469371
58 0.0
59 0.0
60 0.000018117646522
61 0.010113735393494
62 0.000154511296445
63 -0.004070783635374
64 0.0
65 -0.000012842127039
66 -0.000082593166008
67 0.0
68 0.003144575095875
69 -0.000561614436118
70 0.000387056394822
71 -0.000116650925451
72 -0.000270405469371
73 0.0
74 0.0
75 -0.000018117646522
76 -0.000101366409875
77 -0.000365982744918
78 0.006400902433490
79 0.0
80 0.0
81 0.000036407025778
82 0.0
83 0.0
84 0.003209893926105
85 -0.000287412961778
86 0.000130931916927
87 0.000156481044851
88 0.0
89 0.0
90 0.0
91 -0.000096201030705
92 0.001476500018562
93 0.0
94 -0.000357593521872
95 0.000152269694146
96 -0.000096201030705
97 0.001476500018562
98 0.0
99 0.000357593521872
100 0.000152269694146
101 -0.000073719228080
102 -0.000726570209330
103 0.0
104 0.000154440494589
105 0.000079725769533
106 -0.000073719228080
107 -0.000726570209330
108 0.0
109 -0.000154440494589
110 0.000079725769533
111 -0.000049170105322
112 0.000804356642910
113 0.0
114 0.0
115 -0.000116164310506
 Sym=      3.1
 Ene=     -11.2726
 Spin= Alpha
 Occup=    2.000000
1 0.000082995702948
2 0.000127309375556
3 -0.001322202938018
4 0.0
5 0.0
6 0.000010674881734
7 0.0
8 0.0
9 0.000683116273408
10 -0.000061515352745
11 0.000040315102029
12 0.000021200250716
13 0.0
14 0.0
15 0.0
16 -0.009979867501588
17 -0.000344047593067
18 0.003266561300552
19 0.0
20 0.000025227793842
21 0.000116168895178
22 0.0
23 0.000897050396757
24 -0.001559994409506
25 0.000122533201192
26 0.000055261497088
27 -0.000177794698280
28 0.0
29 0.0
30 0.000002743183353
31 -0.009979867501588
32 -0.000344047593067
33 0.003266561300552
34 0.0
35 -0.000025227793842
36 0.000116168895178
37 0.0
38 -0.000897050396757
39 -0.001559994409506
40 0.000122533201192
41 0.000055261497088
42 -0.000177794698280
43 0.0
44 0.0
45 -0.000002743183353
46 0.67910613367385
47 0.003056107360987
48 -0.007363628906180
49 0.0
50 0.000124795807227
51 0.000171583016396
52 0.0
53 -0.001417563741828
54 -0.001420537041312
55 -0.000355418851422
56 0.000233941082517
57 0.000121477768905
58 0.0
59 0.0
60 0.000097064046576
61 0.67910613367385
62 0.003056107360987
63 -0.007363628906180
64 0.0
65 -0.000124795807227
66 0.000171583016396
67 0.0
68 0.001417563741828
69 -0.001420537041312
70 -0.000355418851422
71 0.000233941082517
72 0.000121477768905
73 0.0
74 0.0
75 -0.000097064046576
76 0.28532483308156
77 0.000796949494498
78 0.001786764495389
79 0.0
80 0.0
81 0.000032414976840
82 0.0
83 0.0
84 0.001773876318155
85 0.000268071610943
86 -0.000149956128035
87 -0.000118115482907
88 0.0
89 0.0
90 0.0
91 0.000045462728825
92 0.000451474900055
93 0.0
94 0.000053579066124
95 0.000001026957977
96 0.000045462728825
97 0.000451474900055
98 0.0
99 -0.000053579066124
100 0.000001026957977
101 -0.000302952212222
102 0.000370803303319
103 0.0
104 -0.000231091531564
105 -0.000113977562876
106 -0.000302952212222
107 0.000370803303319
108 0.0
109 0.000231091531564
110 -0.000113977562876
111 0.000100196921460
112 0.000838366114661
113 0.0
114 0.0
115 0.000042405937754
 Sym=      2.3
 Ene=     -11.2723
 Spin= Alpha
 Occup=    2.000000
1 0.0
2 0.0
3 0.0
4 0.0
5 -0.000008134769034
6 0.0
7 0.0
8 0.000051454867731
9 0.0
10 0.0
11 0.0
12 0.0
13 0.0
14 0.0
15 0.000020599175797
16 -0.010484133380613
17 -0.000186494075123
18 0.001588777206794
19 0.0
20 0.000041381629493
21 0.000061907487892
22 0.0
23 0.000491087713211
24 -0.000634375272813
25 0.000280405352082
26 -0.000033117478622
27 -0.000247287873460
28 0.0
29 0.0
30 0.000036931439634
31 0.010484133380613
32 0.000186494075123
33 -0.001588777206794
34 0.0
35 0.000041381629493
36 -0.000061907487892
37 0.0
38 0.000491087713211
39 0.000634375272813
40 -0.000280405352082
41 0.000033117478622
42 0.000247287873460
43 0.0
44 0.0
45 0.000036931439634
46 0.70863617014589
47 0.003327328352533
48 -0.006793645631337
49 0.0
50 0.000195436999197
51 0.000174027853185
52 0.0
53 -0.001553034858513
54 -0.000275325133971
55 -0.000374842688664
56 0.000186263606073
57 0.000188579082591
58 0.0
59 0.0
60 0.000065408787541
61 -0.70863617014589
62 -0.003327328352533
63 0.006793645631337
64 0.0
65 0.000195436999197
66 -0.000174027853185
67 0.0
68 -0.001553034858513
69 0.000275325133971
70 0.000374842688664
71 -0.000186263606073
72 -0.000188579082591
73 0.0
74 0.0
75 0.000065408787541
76 0.0
77 0.0
78 0.0
79 0.0
80 0.000098057477567
81 0.0
82 0.0
83 -0.001650431830879
84 0.0
85 0.0
86 0.0
87 0.0
88 0.0
89 0.0
90 0.000197878809329
91 0.000099534723287
92 0.000206209605544
93 0.0
94 0.000082114923261
95 -0.000054518828363
96 -0.000099534723287
97 -0.000206209605544
98 0.0
99 0.000082114923261
100 0.000054518828363
101 -0.000289395552429
102 0.000397151732024
103 0.0
104 -0.000260844942830
105 -0.000151194066563
106 0.000289395552429
107 -0.000397151732024
108 0.0
109 -0.000260844942830
110 0.000151194066563
111 0.0
112 0.0
113 0.0
114 0.000041312988972
115 0.0
 Sym=      4.1
 Ene=     -11.2696
 Spin= Alpha
 Occup=    2.000000
1 -0.000026539767724
2 -0.000054374378413
3 0.000276181244674
4 0.0
5 0.0
6 0.000019099216584
7 0.0
8 0.0
9 -0.000030115488007
10 0.000029718610407
11 0.000003199965453
12 -0.000032918575860
13 0.0
14 0.0
15 0.0
16 0.002791593344064
17 -0.000021657881343
18 -0.000593965201621
19 0.0
20 -0.000014463507905
21 -0.000001753576588
22 0.0
23 -0.000210512956302
24 0.000104817798190
25 -0.000169629070322
26 0.000038841788433
27 0.000130787281889
28 0.0
29 0.0
30 -0.000070127129254
31 0.002791593344064
32 -0.000021657881343
33 -0.000593965201621
34 0.0
35 0.000014463507905
36 -0.000001753576588
37 0.0
38 0.000210512956302
39 0.000104817798190
40 -0.000169629070322
41 0.000038841788433
42 0.000130787281889
43 0.0
44 0.0
45 0.000070127129254
46 -0.20234355346123
47 -0.001241963519722
48 0.004450809493753
49 0.0
50 -0.000124221495976
51 -0.000012869722764
52 0.0
53 0.001866241061543
54 0.000017672971622
55 0.000487124609143
56 -0.000380715989264
57 -0.000106408619878
58 0.0
59 0.0
60 0.000051585047948
61 -0.20234355346123
62 -0.001241963519722
63 0.004450809493753
64 0.0
65 0.000124221495976
66 -0.000012869722764
67 0.0
68 -0.001866241061543
69 0.000017672971622
70 0.000487124609143
71 -0.000380715989264
72 -0.000106408619878
73 0.0
74 0.0
75 -0.000051585047948
76 0.96071551305051
77 0.004522602669129
78 -0.010484719219251
79 0.0
80 0.0
81 0.000354815601522
82 0.0
83 0.0
84 -0.002610216292700
85 -0.000732091763387
86 0.000241964431926
87 0.000490127331461
88 0.0
89 0.0
90 0.0
91 -0.000065645812962
92 0.000006766047099
93 0.0
94 -0.000046675121397
95 0.000014508982720
96 -0.000065645812962
97 0.000006766047099
98 0.0
99 0.000046675121397
100 0.000014508982720
101 0.000249435422158
102 0.000228385031433
103 0.0
104 0.000190193459229
105 0.000129846538022
106 0.000249435422158
107 0.000228385031433
108 0.0
109 -0.000190193459229
110 0.000129846538022
111 -0.000493338327837
112 0.000443532707188
113 0.0
114 0.0
115 -0.000481976090925
 Sym=      5.1
 Ene=      -1.2811
 Spin= Alpha
 Occup=    2.000000
1 -0.015891305032908
2 0.31347197143528
3 0.30576001671697
4 0.0
5 0.0
6 -0.10636801182805
7 0.0
8 0.0
9 -0.049453891383307
10 -0.013104541892864
11 0.009344686651446
12 0.003759855241418
13 0.0
14 0.0
15 0.0
16 -0.011450931074393
17 0.19189522066153
18 0.055566513659749
19 0.0
20 0.10321066551742
21 0.020042203115526
22 0.0
23 -0.004583435647645
24 0.002367029906811
25 -0.011387574970593
26 0.014074936880662
27 -0.002687361910069
28 0.0
29 0.0
30 0.015472589071786
31 -0.011450931074393
32 0.19189522066153
33 0.055566513659749
34 0.0
35 -0.10321066551742
36 0.020042203115526
37 0.0
38 0.004583435647645
39 0.002367029906811
40 -0.011387574970593
41 0.014074936880662
42 -0.002687361910069
43 0.0
44 0.0
45 -0.015472589071786
46 -0.006366626523056