[Molden Format]
[Molpro variables]
_NUMVAR=  808.0000000000000    
_AVOGAD= 0.6022136736000000E+24
_BOLTZ= 0.1380658000000000E-22
_CLIGHT=  29979245800.00000    
_EV2006= 0.3674930886769165E-01
_EV= 0.3674932534394180E-01
_ENULL= 0.8854187817000000E-11
_KJOULE= 0.3808798324128737E-03
_KJOULE/MOL= 0.3808798324128737E-03
_CM= 0.4556335267302901E-05
_CM-1= 0.4556335267302901E-05
_DEB2SI= 0.3335641000000000E-29
_AMU2AU=  1822.888390000000    
_KCAL= 0.1593601117815568E-02
_KCAL/MOL= 0.1593601117815568E-02
_KELVIN2006= 0.3166828861084835E-05
_KELVIN= 0.3166814820820034E-05
_JOULE= 0.4359748200000000E-17
_HERTZ2006= 0.1519829850815779E-15
_HERTZ= 0.1519829846011223E-15
_HZ2006= 0.1519829850815779E-15
_HZ= 0.1519829846011223E-15
_JPCAL=  4.184000000000000    
_PLANCK= 0.6626075540000000E-33
_TOA2006= 0.5291772490000000    
_TOA= 0.5291772090000000    
_TOANG2006= 0.5291772490000000    
_TOANG= 0.5291772090000000    
_TORAD= 0.1745329251994330E-01
_TOCM=  219474.6306700000    
_TODEBYE=  2.541580000000000    
_TOEV2006=  27.21139610000000    
_TOE= 0.4803242000000000E-09
_TOEV=  27.21138390000000    
_TOHERTZ2006=  6579683899900000.    
_TOHERTZ=  6579683920700000.    
_TOHZ2006=  6579683899900000.    
_TOHZ=  6579683920700000.    
_TOK2006=  315773.3000000000    
_TOK=  315774.7000000000    
_TOKCAL=  627.5096000000000    
_TOKELVIN2006=  315773.3000000000    
_TOKELVIN=  315774.7000000000    
_TOKJ=  2625.500000000000    
_TOKJOULE=  2625.500000000000    
_TOKG= 0.1660565586000000E-26
_ANG2006=  1.889725988578923    
_ANG=  1.889726131421507    
_ANGSTROM2006=  1.889725988578923    
_ANGSTROM=  1.889726131421507    
_RPAREF=  0.000000000000000    
_RPADISS=  0.000000000000000    
_IGNORE_UNDEF=  2.000000000000000    
_STRICTCHECK=  0.000000000000000    
_SEW_ONEEL=  0.000000000000000    
_CPPDONE=FALSE
_DKROLL_DONE=  0.000000000000000    
_FOCKDONE=TRUE
_GRADONE=FALSE
_HESSDONE=FALSE
_INTDONE=TRUE
_SCFDONE=TRUE
_MODUL_BLOCK=FALSE
_MODUL_CUDA=FALSE
_MODUL_SLATER=FALSE
_MODUL_MRCC=FALSE
_MODUL_NBO6=FALSE
_MODUL_NECI=TRUE
_MODUL_AIMS=TRUE
_MRCC_EXEC=
_FITC_AO_SAVED=FALSE
_FITC_MO_SAVED=FALSE
_SHARED_FS=TRUE
_LSTYP=SEWARD
_INTYP=INTS
_GEOMTYP=ZMAT
_GRADTYP=ALASKA
_DIRECT=FALSE
_DKHO= -1.000000000000000    
_SYNCM=  0.000000000000000    
_BASIS=USERDEF
_ZORIENT=  1.000000000000000    
_NELEC=  58.00000000000000    
!SPIN=  0.000000000000000    
_QSDSTEP=  0.000000000000000    
_QSDIRC=  0.000000000000000    
_PROGRAM=HF-SCF
_CPUSTEP=  4.880000000000000    
_SYSSTEP= 0.2100000000000000    
_WALLSTEP=  2.590000000000000    
!DFSCF=  0.000000000000000    
!SCSGRD=  0.000000000000000    
_BASINP=  610.0000000000000    
_CPUTOT=  9.130000000000001    
_CPUSORT= 0.6899999999999999    
_SYSSORT= 0.2900000000000000    
_WALLSORT=  1.019999999552965    
_DFTEXFAC=  1.000000000000000    
_DMX= 0.7004600213495662    
_DMY= -1.075299247784766    
_DMZ=  0.000000000000000    
_DMX_SCF= 0.7004600213495662    
_DMY_SCF= -1.075299247784766    
_DMZ_SCF=  0.000000000000000    
_EHOMO=-0.3229767027469017    
_ELUMO= 0.1116440973270138    
_ENERGY= -412.1165968363312    
_ENUC=  360.8014524679945    
_EPS1= -20.66490048556296    
_EPS2=-0.7354072348307626    
_GRADEXFAC=  9999.000000000000    
_GRADMETHOD=  1.000000000000000    
_NMRMETHOD=  0.000000000000000    
!GRID_FREEZE= -1.000000000000000    
_ITERATIONS=  11.00000000000000    
_LASTNELEC=  58.00000000000000    
_LASTSPIN=  0.000000000000000    
_LASTSYM=  1.000000000000000    
_MPP_PROG=  0.000000000000000    
_NPROC_MPP=  1.000000000000000    
_NPROC_MPPX=  1.000000000000000    
_NPROC_SMP=  16.00000000000000    
_NUMSTEP=  0.000000000000000    
_ORBITAL=  2100.200000000000    
_PI=  3.141592653589793    
_SEIG_MIN= 0.1419611248758777E-02
_SEWPROP=TRUE
_STATUS=  1.000000000000000    
_SYSTOT= 0.5700000000000000    
_VERSION=  2012001.000000000    
_WALLTOT=  8.640000000000001    
_DATE=24-Jan-19
_LASTORB=RHF
_MACHINE=Linux-4.9.0-8-amd64/nympha18.meta.zcu.cz(x86_64) (16 PROC) 64 bit serial version
_OUTPUT=/auto/brno2/home/masiz4am/git/UKRmol-in/tests/suite/Cs_target_HF3/molpro.xml
_PGROUP=Cs
_TIME=16:16:39
_LIBMOL=/afs/ics.muni.cz/software/molpro-2012.1/molprop_2012_1_Linux_x86_64_i8/lib/
!VIBCNT=  0.000000000000000    
!RGHFCNT=  0.000000000000000    
!SURFREC=  0.000000000000000    
!POLYREC=  0.000000000000000    
!DIPREC=  0.000000000000000    
!VSCFREC=  0.000000000000000    
!VCIREC=  0.000000000000000    
!PVCIREC=  0.000000000000000    
!VMP2REC=  0.000000000000000    
!VMCSCFREC=  0.000000000000000    
!VMRCIREC=  0.000000000000000    
!VIBINFO=  0.000000000000000    
!GAREC=  0.000000000000000    
!SCFORB=  21002.00000000000    
!NEWMOL= -1.000000000000000    
!NEWSYM= -1.000000000000000    
_SLFILES=slscratch
_NGSSTO=  9.000000000000000    
_SIN=SIN
_COS=COS
_TAN=TAN
_ACOS=ACOS
_ASIN=ASIN
_ATAN=ATAN
_COSH=COSH
_SINH=SINH
_TANH=TANH
_ABS=ABS
_MOD=MOD
_ERF=ERF
_REFC=REFC
_ERFC=ERFC
_HYPOT=HYPOT
_J0=J0
_J1=J1
_JN=JN
_GAMMA=GAMMA
_LGAMMA=LGAMMA
_Y0=Y0
_Y1=Y1
_YN=YN
_EXP=EXP
_LOG=LOG
_LOG10=LOG10
_SQRT=SQRT
_INT=INT
_NINT=NINT
_MAX=MAX
_MIN=MIN
_COSMO=  0.000000000000000    
_COSMOIT=  0.000000000000000    
_COSMOES=  0.000000000000000    
_COSMOEDS=  0.000000000000000    
_COSMOEC=  0.000000000000000    
_COSMOEDCORR=  0.000000000000000    
_FEPSI=  1.000000000000000    
_SL_IsMM=  0.000000000000000    
_SL_NSYM=  2.000000000000000    
_SL_System_BitSw=  0.000000000000000    
_SL_Unique_atoms=  0.000000000000000    
_SL_GRAD=  0.000000000000000    
_SL_MAXUPD_Hess=  5.000000000000000    
_SL_N_PRINT_COD=  5.000000000000000    
_SL_PRINT_CODES=  0.000000000000000    
_SL_BasType=  0.000000000000000    
_SL_Energy_Pred=  0.000000000000000    
_SL_New_Coords=  0.000000000000000    
_SL_Total_Nuclea=  0.000000000000000    
_SL_Highest_Mltp=  0.000000000000000    
_SL_Ref_Geom=  0.000000000000000    
_SL_Symmetry_ope=  1.000000000000000    
_SL_agrad=  0.000000000000000    
_SL_GrdMax=  0.000000000000000    
_SL_GrdNorm=  0.000000000000000    
_SL_GrdRMS=  0.000000000000000    
!LATTICE= -1.000000000000000    
!NEWLATTICE=  0.000000000000000    
!LATGRAD_VAR=FALSE
!SEW_LATTICE=  1.000000000000000    
!LOCAL=  0.000000000000000    
!SAVEDOM= -1.000000000000000    
!RESTDOM= -1.000000000000000    
!SAVEDOM_HF= -1.000000000000000    
!RESTDOM_HF= -1.000000000000000    
!HESSREC=  0.000000000000000    
!FREQREC=  0.000000000000000    
!NMODREC=  0.000000000000000    
!GTASKS=  0.000000000000000    
!HTASKS=  0.000000000000000    
!THRCHG= 0.1000000000000000    
!DEBUG= -1.000000000000000    
!CFIT_CPHF=  0.000000000000000    
!RDOMAUX_CPHF=  3.000000000000000    
!THRAO_CPHF= 0.1000000000000000E-09
!THRMO_CPHF= 0.1000000000000000E-08
!THROV_CPHF= 0.1000000000000000E-11
!THRSW_CPHF= 0.1000000000000000E-09
!THRPROD_CPHF= 0.1000000000000000E-08
!THRAOPR_CPHF= 0.1000000000000000E-11
!CFIT_SCFGRD=  0.000000000000000    
!RDOMAUX_SCFGRD=  5.000000000000000    
!THRAO_SCFGRD= 0.1000000000000000E-09
!THRMO_SCFGRD= 0.1000000000000000E-08
!THROV_SCFGRD= 0.1000000000000000E-11
!THRSW_SCFGRD= 0.1000000000000000E-09
!THRPROD_SCFGRD= 0.1000000000000000E-08
!THRAOPR_SCFGRD= 0.1000000000000000E-11
!LOCFIT_SCF=  0.000000000000000    
!LOCFIT_MP2= -1.000000000000000    
_RIDOM=  0.000000000000000    
!CC2_METHOD=  0.000000000000000    
_BASIS2006=FALSE
_SVDDEL= -1.000000000000000    
_SVDDELA= -1.000000000000000    
_SVDDELP= -1.000000000000000    
_SVDDELF= -1.000000000000000    
_SVDDELS= -1.000000000000000    
_SVDDEL_ABS= -1.000000000000000    
_SVDDELA_ABS= -1.000000000000000    
_SVDDELP_ABS= -1.000000000000000    
_SVDDELF_ABS= -1.000000000000000    
_SVDDELS_ABS= -1.000000000000000    
_MAXBASIS=  0.000000000000000    
!OPT_CONICAL=  0.000000000000000    
!CLEARSP_JGRID=  0.000000000000000    
_4EXT_NDISKS=  1.000000000000000    
!ZMP=  0.000000000000000    
_MAXIT_ZMP=  500.0000000000000    
_MAXDIS_ZMP=  100.0000000000000    
_ACCU_ZMP=  14.00000000000000    
_SHIFTA_ZMP= -100.0000000000000    
!EMBEDFLAG=  1.000000000000000    
!EMBED=FALSE
!EMBED_F12=FALSE
!EMBEDNUC=  0.000000000000000    
_EMBEDENERGY=  0.000000000000000    
_KSPACETIME=  0.000000000000000    
_RSPACETIME=  0.000000000000000    
!EMBED_DFC=FALSE
!NUM_VOIDS=  0.000000000000000    
_IBODY=  0.000000000000000    
_EMBE_TOTAL=  0.000000000000000    
_EMBE_HF=  0.000000000000000    
_EMBE_CORR=  0.000000000000000    
!EDFT=  0.000000000000000    
_IFASTLATGRAD=  0.000000000000000    
_SINDEX=  0.000000000000000    
GX1= 0.7342000000000000    
GY1=  2.390300000000000    
GZ1=  0.000000000000000    
GX2= -2.003500000000000    
GY2=  2.328300000000000    
GZ2=  0.000000000000000    
GX3=  1.878600000000000    
GY3=  0.000000000000000    
GZ3=  0.000000000000000    
GX4= -3.216300000000000    
GY4= 0.1009000000000000    
GZ4=  0.000000000000000    
GX5=  2.017300000000000    
GY5=  4.309300000000000    
GZ5=  0.000000000000000    
GX6= -1.929400000000000    
GY6= -2.151500000000000    
GZ6=  0.000000000000000    
GX7= 0.6820000000000001    
GY7= -2.309400000000000    
GZ7=  0.000000000000000    
GX8=  1.789900000000000    
GY8= -4.331100000000000    
GZ8=  0.000000000000000    
GX9= -2.981200000000000    
GY9=  4.109200000000000    
GZ9=  0.000000000000000    
GX10=  3.780800000000000    
GY10=-0.7290000000000001E-01
GZ10=  0.000000000000000    
GX11= -5.251700000000000    
GY11=-0.4140000000000000E-01
GZ11=  0.000000000000000    
GX12=  2.829700000000000    
GY12= -3.821000000000000    
GZ12=  0.000000000000000    
[Atoms] Angs
C     1    6         0.3885219068        1.2648922827        0.0000000000
C     2    6        -1.0602065382        1.2320832957        0.0000000000
N     3    7         0.9941123048        0.0000000000        0.0000000000
C     4    6        -1.7019926573        0.0533939804        0.0000000000
O     5    8         1.0675091837        2.2803833467        0.0000000000
N     6    7        -1.0209945070       -1.1385247652        0.0000000000
C     7    6         0.3608988565       -1.2220818465        0.0000000000
O     8    8         0.9471742864       -2.2919194099        0.0000000000
H     9    1        -1.5775830955        2.1744949872        0.0000000000
H    10    1         2.0007131918       -0.0385770185        0.0000000000
H    11    1        -2.7790799485       -0.0219079365        0.0000000000
H    12    1         1.4974127483       -2.0219861156        0.0000000000
[GTO]
  1 0
 s    8  1.00
  0.6665000000D+04  0.6915839628D-03
  0.1000000000D+04  0.5325796153D-02
  0.2280000000D+03  0.2706072104D-01
  0.6471000000D+02  0.1016568461D+00
  0.2106000000D+02  0.2745748236D+00
  0.7495000000D+01  0.4482943189D+00
  0.2797000000D+01  0.2849026107D+00
  0.5215000000D+00  0.1519485921D-01
 s    8  1.00
  0.6665000000D+04 -0.2932696527D-03
  0.1000000000D+04 -0.2318035474D-02
  0.2280000000D+03 -0.1149978604D-01
  0.6471000000D+02 -0.4682672701D-01
  0.2106000000D+02 -0.1284661688D+00
  0.7495000000D+01 -0.3012662725D+00
  0.2797000000D+01 -0.2556307023D+00
  0.5215000000D+00  0.1093793361D+01
 s    1  1.00
  0.1596000000D+00  0.1000000000D+01
 p    3  1.00
  0.9439000000D+01  0.5697925159D-01
  0.2002000000D+01  0.3132072115D+00
  0.5456000000D+00  0.7603767417D+00
 p    1  1.00
  0.1517000000D+00  0.1000000000D+01
 d    1  1.00
  0.5500000000D+00  0.1000000000D+01
  
  2 0
 s    8  1.00
  0.6665000000D+04  0.6915839628D-03
  0.1000000000D+04  0.5325796153D-02
  0.2280000000D+03  0.2706072104D-01
  0.6471000000D+02  0.1016568461D+00
  0.2106000000D+02  0.2745748236D+00
  0.7495000000D+01  0.4482943189D+00
  0.2797000000D+01  0.2849026107D+00
  0.5215000000D+00  0.1519485921D-01
 s    8  1.00
  0.6665000000D+04 -0.2932696527D-03
  0.1000000000D+04 -0.2318035474D-02
  0.2280000000D+03 -0.1149978604D-01
  0.6471000000D+02 -0.4682672701D-01
  0.2106000000D+02 -0.1284661688D+00
  0.7495000000D+01 -0.3012662725D+00
  0.2797000000D+01 -0.2556307023D+00
  0.5215000000D+00  0.1093793361D+01
 s    1  1.00
  0.1596000000D+00  0.1000000000D+01
 p    3  1.00
  0.9439000000D+01  0.5697925159D-01
  0.2002000000D+01  0.3132072115D+00
  0.5456000000D+00  0.7603767417D+00
 p    1  1.00
  0.1517000000D+00  0.1000000000D+01
 d    1  1.00
  0.5500000000D+00  0.1000000000D+01
  
  3 0
 s    8  1.00
  0.9046000000D+04  0.6996174134D-03
  0.1357000000D+04  0.5386054630D-02
  0.3093000000D+03  0.2739102119D-01
  0.8773000000D+02  0.1031505920D+00
  0.2856000000D+02  0.2785706633D+00
  0.1021000000D+02  0.4482948495D+00
  0.3838000000D+01  0.2780859284D+00
  0.7466000000D+00  0.1543156123D-01
 s    8  1.00
  0.9046000000D+04 -0.3049900960D-03
  0.1357000000D+04 -0.2408026379D-02
  0.3093000000D+03 -0.1194444873D-01
  0.8773000000D+02 -0.4892599291D-01
  0.2856000000D+02 -0.1344727247D+00
  0.1021000000D+02 -0.3151125777D+00
  0.3838000000D+01 -0.2428578325D+00
  0.7466000000D+00  0.1094382207D+01
 s    1  1.00
  0.2248000000D+00  0.1000000000D+01
 p    3  1.00
  0.1355000000D+02  0.5890567677D-01
  0.2917000000D+01  0.3204611067D+00
  0.7973000000D+00  0.7530420618D+00
 p    1  1.00
  0.2185000000D+00  0.1000000000D+01
 d    1  1.00
  0.8170000000D+00  0.1000000000D+01
  
  4 0
 s    8  1.00
  0.6665000000D+04  0.6915839628D-03
  0.1000000000D+04  0.5325796153D-02
  0.2280000000D+03  0.2706072104D-01
  0.6471000000D+02  0.1016568461D+00
  0.2106000000D+02  0.2745748236D+00
  0.7495000000D+01  0.4482943189D+00
  0.2797000000D+01  0.2849026107D+00
  0.5215000000D+00  0.1519485921D-01
 s    8  1.00
  0.6665000000D+04 -0.2932696527D-03
  0.1000000000D+04 -0.2318035474D-02
  0.2280000000D+03 -0.1149978604D-01
  0.6471000000D+02 -0.4682672701D-01
  0.2106000000D+02 -0.1284661688D+00
  0.7495000000D+01 -0.3012662725D+00
  0.2797000000D+01 -0.2556307023D+00
  0.5215000000D+00  0.1093793361D+01
 s    1  1.00
  0.1596000000D+00  0.1000000000D+01
 p    3  1.00
  0.9439000000D+01  0.5697925159D-01
  0.2002000000D+01  0.3132072115D+00
  0.5456000000D+00  0.7603767417D+00
 p    1  1.00
  0.1517000000D+00  0.1000000000D+01
 d    1  1.00
  0.5500000000D+00  0.1000000000D+01
  
  5 0
 s    8  1.00
  0.1172000000D+05  0.7096459465D-03
  0.1759000000D+04  0.5467272292D-02
  0.4008000000D+03  0.2782311861D-01
  0.1137000000D+03  0.1047477397D+00
  0.3703000000D+02  0.2829208464D+00
  0.1327000000D+02  0.4484952387D+00
  0.5025000000D+01  0.2708168852D+00
  0.1013000000D+01  0.1545029161D-01
 s    8  1.00
  0.1172000000D+05 -0.3144434117D-03
  0.1759000000D+04 -0.2482137681D-02
  0.4008000000D+03 -0.1231635538D-01
  0.1137000000D+03 -0.5053891734D-01
  0.3703000000D+02 -0.1393849033D+00
  0.1327000000D+02 -0.3250774948D+00
  0.5025000000D+01 -0.2298483076D+00
  0.1013000000D+01  0.1095379347D+01
 s    1  1.00
  0.3023000000D+00  0.1000000000D+01
 p    3  1.00
  0.1770000000D+02  0.6267916628D-01
  0.3854000000D+01  0.3335365659D+00
  0.1046000000D+01  0.7412396416D+00
 p    1  1.00
  0.2753000000D+00  0.1000000000D+01
 d    1  1.00
  0.1185000000D+01  0.1000000000D+01
  
  6 0
 s    8  1.00
  0.9046000000D+04  0.6996174134D-03
  0.1357000000D+04  0.5386054630D-02
  0.3093000000D+03  0.2739102119D-01
  0.8773000000D+02  0.1031505920D+00
  0.2856000000D+02  0.2785706633D+00
  0.1021000000D+02  0.4482948495D+00
  0.3838000000D+01  0.2780859284D+00
  0.7466000000D+00  0.1543156123D-01
 s    8  1.00
  0.9046000000D+04 -0.3049900960D-03
  0.1357000000D+04 -0.2408026379D-02
  0.3093000000D+03 -0.1194444873D-01
  0.8773000000D+02 -0.4892599291D-01
  0.2856000000D+02 -0.1344727247D+00
  0.1021000000D+02 -0.3151125777D+00
  0.3838000000D+01 -0.2428578325D+00
  0.7466000000D+00  0.1094382207D+01
 s    1  1.00
  0.2248000000D+00  0.1000000000D+01
 p    3  1.00
  0.1355000000D+02  0.5890567677D-01
  0.2917000000D+01  0.3204611067D+00
  0.7973000000D+00  0.7530420618D+00
 p    1  1.00
  0.2185000000D+00  0.1000000000D+01
 d    1  1.00
  0.8170000000D+00  0.1000000000D+01
  
  7 0
 s    8  1.00
  0.6665000000D+04  0.6915839628D-03
  0.1000000000D+04  0.5325796153D-02
  0.2280000000D+03  0.2706072104D-01
  0.6471000000D+02  0.1016568461D+00
  0.2106000000D+02  0.2745748236D+00
  0.7495000000D+01  0.4482943189D+00
  0.2797000000D+01  0.2849026107D+00
  0.5215000000D+00  0.1519485921D-01
 s    8  1.00
  0.6665000000D+04 -0.2932696527D-03
  0.1000000000D+04 -0.2318035474D-02
  0.2280000000D+03 -0.1149978604D-01
  0.6471000000D+02 -0.4682672701D-01
  0.2106000000D+02 -0.1284661688D+00
  0.7495000000D+01 -0.3012662725D+00
  0.2797000000D+01 -0.2556307023D+00
  0.5215000000D+00  0.1093793361D+01
 s    1  1.00
  0.1596000000D+00  0.1000000000D+01
 p    3  1.00
  0.9439000000D+01  0.5697925159D-01
  0.2002000000D+01  0.3132072115D+00
  0.5456000000D+00  0.7603767417D+00
 p    1  1.00
  0.1517000000D+00  0.1000000000D+01
 d    1  1.00
  0.5500000000D+00  0.1000000000D+01
  
  8 0
 s    8  1.00
  0.1172000000D+05  0.7096459465D-03
  0.1759000000D+04  0.5467272292D-02
  0.4008000000D+03  0.2782311861D-01
  0.1137000000D+03  0.1047477397D+00
  0.3703000000D+02  0.2829208464D+00
  0.1327000000D+02  0.4484952387D+00
  0.5025000000D+01  0.2708168852D+00
  0.1013000000D+01  0.1545029161D-01
 s    8  1.00
  0.1172000000D+05 -0.3144434117D-03
  0.1759000000D+04 -0.2482137681D-02
  0.4008000000D+03 -0.1231635538D-01
  0.1137000000D+03 -0.5053891734D-01
  0.3703000000D+02 -0.1393849033D+00
  0.1327000000D+02 -0.3250774948D+00
  0.5025000000D+01 -0.2298483076D+00
  0.1013000000D+01  0.1095379347D+01
 s    1  1.00
  0.3023000000D+00  0.1000000000D+01
 p    3  1.00
  0.1770000000D+02  0.6267916628D-01
  0.3854000000D+01  0.3335365659D+00
  0.1046000000D+01  0.7412396416D+00
 p    1  1.00
  0.2753000000D+00  0.1000000000D+01
 d    1  1.00
  0.1185000000D+01  0.1000000000D+01
  
  9 0
 s    3  1.00
  0.1301000000D+02  0.3349872639D-01
  0.1962000000D+01  0.2348008012D+00
  0.4446000000D+00  0.8136829579D+00
 s    1  1.00
  0.1220000000D+00  0.1000000000D+01
 p    1  1.00
  0.7270000000D+00  0.1000000000D+01
  
 10 0
 s    3  1.00
  0.1301000000D+02  0.3349872639D-01
  0.1962000000D+01  0.2348008012D+00
  0.4446000000D+00  0.8136829579D+00
 s    1  1.00
  0.1220000000D+00  0.1000000000D+01
 p    1  1.00
  0.7270000000D+00  0.1000000000D+01
  
 11 0
 s    3  1.00
  0.1301000000D+02  0.3349872639D-01
  0.1962000000D+01  0.2348008012D+00
  0.4446000000D+00  0.8136829579D+00
 s    1  1.00
  0.1220000000D+00  0.1000000000D+01
 p    1  1.00
  0.7270000000D+00  0.1000000000D+01
  
 12 0
 s    3  1.00
  0.1301000000D+02  0.3349872639D-01
  0.1962000000D+01  0.2348008012D+00
  0.4446000000D+00  0.8136829579D+00
 s    1  1.00
  0.1220000000D+00  0.1000000000D+01
 p    1  1.00
  0.7270000000D+00  0.1000000000D+01
 
 
[MO]
 Sym=      1.1
 Ene=     -20.6649
 Spin= Alpha
 Occup=    2.000000
1 -0.000102232098730
2 -0.000190318160619
3 -0.000056202829485
4 -0.000014592101510
5 0.000069264124669
6 0.0
7 0.000102229423581
8 -0.000198258242554
9 0.0
10 0.000049082907641
11 -0.000027871701646
12 -0.000021211205995
13 -0.000067748599970
14 0.0
15 0.0
16 -0.000051764966883
17 -0.000100412103912
18 -0.000072863270167
19 -0.000003176607953
20 0.000032184801666
21 0.0
22 0.000083024922192
23 0.000060855185604
24 0.0
25 0.000006579011713
26 -0.000000603622634
27 -0.000005975389080
28 0.000001011287314
29 0.0
30 0.0
31 -0.000087454749153
32 -0.000174144255670
33 0.000611340603790
34 0.000067071845212
35 0.000055142521446
36 0.0
37 -0.000933805538609
38 0.000157808802615
39 0.0
40 0.000177598145354
41 -0.000149146925525
42 -0.000028451219828
43 0.000055423915106
44 0.0
45 0.0
46 -0.000127543811468
47 -0.000230350224867
48 0.000328408353814
49 -0.000064558553783
50 0.000038305788098
51 0.0
52 0.000537753401493
53 -0.000020632687330
54 0.0
55 -0.000016276725959
56 0.000072079183820
57 -0.000055802457861
58 -0.000002997082479
59 0.0
60 0.0
61 -0.000009053301350
62 -0.000012877430247
63 0.000113262803048
64 -0.000006612781085
65 -0.000013559686900
66 0.0
67 -0.000059426547066
68 0.000004735850762
69 0.0
70 0.000006105618166
71 -0.000004058373557
72 -0.000002047244609
73 0.000015092303025
74 0.0
75 0.0
76 -0.000118687830235
77 -0.000235301521764
78 0.000773506176327
79 -0.000062442007173
80 0.000006513462393
81 0.0
82 0.000227560855510
83 0.000526775341754
84 0.0
85 -0.000034910009988
86 0.000048870670149
87 -0.000013960660161
88 0.000174977513799
89 0.0
90 0.0
91 0.000270466115080
92 0.000420647738725
93 0.001638542666768
94 0.000090829217406
95 -0.000116888819063
96 0.0
97 0.001997936140229
98 -0.002979926984245
99 0.0
100 0.000249168229855
101 -0.000361462551794
102 0.000112294321939
103 0.000370769062074
104 0.0
105 0.0
106 1.00287253995165
107 0.005449522421211
108 -0.004569488288232
109 0.002289751091758
110 0.002980395100278
111 0.0
112 0.001444773223316
113 -0.001339768198506
114 0.0
115 0.000667833319219
116 -0.000142148773679
117 -0.000525684545541
118 0.000766849903712
119 0.0
120 0.0
121 0.000006352815386
122 0.000051296133179
123 0.000004840409285
124 -0.000015523902021
125 0.0
126 0.000126911653929
127 0.000115659537513
128 0.000056909325219
129 0.000026336381519
130 0.0
131 0.000062327054392
132 0.000260295646957
133 0.000013533766466
134 0.000021885168787
135 0.0
136 -0.004382338433596
137 -0.000536762988548
138 0.002166353330427
139 0.000843036111286
140 0.0
 Sym=      2.1
 Ene=     -20.5266
 Spin= Alpha
 Occup=    2.000000
1 0.000317333516201
2 0.000441776928606
3 0.000978863694703
4 -0.000066761772070
5 -0.000032812009914
6 0.0
7 0.001817137453056
8 0.003624295988938
9 0.0
10 0.000114661753994
11 -0.000357377016332
12 0.000242715262338
13 -0.000661185388596
14 0.0
15 0.0
16 -0.000083982939908
17 -0.000152268212839
18 0.001847455363638
19 -0.000043839333408
20 0.000071195150614
21 0.0
22 -0.000057054053406
23 -0.001864826987606
24 0.0
25 -0.000075369766770
26 0.000194540721596
27 -0.000119170954826
28 -0.000437606181195
29 0.0
30 0.0
31 -0.000132304061870
32 -0.000257961895425
33 0.001061176301101
34 0.000078921762457
35 -0.000097168020647
36 0.0
37 -0.000856396072796
38 0.000224100552401
39 0.0
40 0.000211112460735
41 -0.000175709766650
42 -0.000035402694085
43 -0.000056451286245
44 0.0
45 0.0
46 -0.000007185322272
47 -0.000014266654838
48 -0.001288144587672
49 -0.000032414404116
50 -0.000008748250183
51 0.0
52 0.000072144842524
53 -0.000554103809248
54 0.0
55 -0.000134808558224
56 0.000167939434326
57 -0.000033130876102
58 -0.000044121753630
59 0.0
60 0.0
61 1.00140087761627
62 0.002054297616903
63 -0.006836172383620
64 -0.000933789370358
65 -0.001528176595510
66 0.0
67 0.000997016096918
68 0.001425741249523
69 0.0
70 0.000067799610698
71 0.000109487036415
72 -0.000177286647113
73 0.000057252931013
74 0.0
75 0.0
76 0.000004832423473
77 0.000000828301382
78 -0.000293430455965
79 -0.000015837108473
80 -0.000008621439860
81 0.0
82 0.000060724502004
83 -0.000135121806144
84 0.0
85 -0.000029856563736
86 0.000010468719910
87 0.000019387843826
88 0.000042191240286
89 0.0
90 0.0
91 -0.000117709587025
92 -0.000214436026383
93 0.000110225559773
94 -0.000006034084926
95 -0.000048311217039
96 0.0
97 -0.000014936115192
98 0.000475880735559
99 0.0
100 0.000104937532936
101 -0.000065272698721
102 -0.000039664834214
103 0.000083699567324
104 0.0
105 0.0
106 -0.000007397701334
107 -0.000015565104250
108 0.000165420843936
109 -0.000000990691098
110 0.000016455879875
111 0.0
112 -0.000175113804024
113 0.000045235116959
114 0.0
115 -0.000010388876019
116 0.000008030964615
117 0.000002357911404
118 -0.000026739410615
119 0.0
120 0.0
121 -0.000127487099658
122 0.000389716464815
123 -0.000057199986038
124 0.000189364611587
125 0.0
126 0.000054986638482
127 0.000021245839159
128 0.000087456850770
129 -0.000059618480193
130 0.0
131 0.000167078543418
132 0.000121987758185
133 0.000053009263021
134 0.000009820679323
135 0.0
136 0.000043776525887
137 0.000192146375544
138 0.000012159097768
139 -0.000013605195499
140 0.0
 Sym=      3.1
 Ene=     -15.6581
 Spin= Alpha
 Occup=    2.000000
1 0.000050321046974
2 0.000019190706993
3 0.002326353955006
4 0.000042510747926
5 -0.000118141934205
6 0.0
7 0.001003741659339
8 -0.002950620964494
9 0.0
10 0.000002463722345
11 -0.000009767349617
12 0.000007303627273
13 0.000230074017040
14 0.0
15 0.0
16 0.000001570253699
17 -0.000005500454090
18 -0.001374646713826
19 -0.000083693824730
20 0.000002713676961
21 0.0
22 0.000698224103792
23 0.002140834096670
24 0.0
25 0.000007244044717
26 0.000045307431663
27 -0.000052551476380
28 0.000052705440106
29 0.0
30 0.0
31 1.00200907433734
32 0.003671854778379
33 -0.009989593155135
34 0.000044283632331
35 -0.000370354702797
36 0.0
37 0.001836261313121
38 0.000000916103620
39 0.0
40 0.000187734472296
41 -0.000077095815073
42 -0.000110638657223
43 0.000010825519482
44 0.0
45 0.0
46 -0.000054322815307
47 -0.000089462561955
48 0.002613290710663
49 -0.000005426232617
50 -0.000028440847444
51 0.0
52 0.000619014225617
53 0.000741122542158
54 0.0
55 0.000064018173876
56 0.000017929996539
57 -0.000081948170415
58 0.000005332963875
59 0.0
60 0.0
61 -0.000079980519739
62 -0.000168819597724
63 0.000447525419595
64 0.000049852469583
65 0.000022199160704
66 0.0
67 -0.000368465056656
68 0.000385790973991
69 0.0
70 0.000061652601706
71 -0.000062686135055
72 0.000001033533349
73 -0.000017826767392
74 0.0
75 0.0
76 -0.000170079848601
77 -0.000078857844976
78 -0.000237192868531
79 -0.000087281900265
80 0.000022414511681
81 0.0
82 0.000109460368350
83 -0.000780808923789
84 0.0
85 0.000003207802369
86 0.000037859951847
87 -0.000041067754216
88 -0.000064944822132
89 0.0
90 0.0
91 0.000093992842221
92 0.000066336972796
93 0.002504209425158
94 0.000069378398876
95 0.000084479066791
96 0.0
97 0.001017133873366
98 0.002218138069072
99 0.0
100 0.000054477207163
101 -0.000136347314890
102 0.000081870107727
103 -0.000382653885114
104 0.0
105 0.0
106 -0.000032358962978
107 -0.000090818747590
108 -0.000065229390597
109 0.000036711494768
110 -0.000056148883368
111 0.0
112 -0.000582756074207
113 -0.000430228512661
114 0.0
115 0.000050163062908
116 -0.000075226382957
117 0.000025063320049
118 -0.000044735214005
119 0.0
120 0.0
121 -0.000161186179692
122 -0.000354093316903
123 -0.000046755803780
124 -0.000062291146332
125 0.0
126 -0.000194096127556
127 -0.000063772705833
128 0.000588900554165
129 -0.000014372234300
130 0.0
131 -0.000119809547361
132 0.000093158661411
133 -0.000039908286338
134 -0.000037817822631
135 0.0
136 0.000239600641155
137 0.000109961312300
138 0.000048574383203
139 -0.000012574619242
140 0.0
 Sym=      4.1
 Ene=     -15.5530
 Spin= Alpha
 Occup=    2.000000
1 -0.000042744701032
2 -0.000081429724460
3 0.001999395210795
4 0.000049378490362
5 -0.000007852311342
6 0.0
7 -0.001021230260438
8 -0.000049956239924
9 0.0
10 0.000030468918552
11 0.000010382593755
12 -0.000040851512307
13 0.000032611963267
14 0.0
15 0.0
16 0.000041449068359
17 0.000056935720597
18 -0.002871041830334
19 0.000029179461671
20 0.000150340501989
21 0.0
22 -0.001568054774590
23 0.001220366196825
24 0.0
25 0.000182888249334
26 -0.000143586255363
27 -0.000039301993972
28 0.000016013674594
29 0.0
30 0.0
31 0.000055907301289
32 -0.000165626737496
33 -0.000085838284693
34 0.000058736823893
35 0.000112342923520
36 0.0
37 0.000674581551965
38 -0.000431353592153
39 0.0
40 0.000034752691787
41 0.000064602702486
42 -0.000099355394273
43 -0.000089184004929
44 0.0
45 0.0
46 0.000104360390354
47 0.000077486526024
48 0.003472833977890
49 -0.000018961522051
50 -0.000017944784813
51 0.0
52 0.002613807821444
53 -0.000718992488141
54 0.0
55 0.000327643873106
56 -0.000394452866832
57 0.000066808993726
58 0.000438172853795
59 0.0
60 0.0
61 -0.000005279329883
62 -0.000012156862535
63 -0.000066529282780
64 -0.000012374467123
65 0.000024833135497
66 0.0
67 0.000178745472115
68 -0.000024139310399
69 0.0
70 -0.000005169913840
71 0.000003684875231
72 0.000001485038609
73 -0.000014763933040
74 0.0
75 0.0
76 1.00188453903105
77 0.003181558332018
78 -0.010000128471448
79 0.001198821048090
80 0.001737429239844
81 0.0
82 -0.001837235809835
83 -0.002281797891491
84 0.0
85 0.000111948185857
86 0.000046564957574
87 -0.000158513143431
88 -0.000113618290971
89 0.0
90 0.0
91 0.000166768672179
92 0.000158885316528
93 0.002279483472997
94 -0.000106578593845
95 0.000059536587204
96 0.0
97 -0.003028553322384
98 0.000982775974852
99 0.0
100 -0.000548275751477
101 0.000335394360067
102 0.000212881391410
103 0.000004064770555
104 0.0
105 0.0
106 -0.000067988224134
107 -0.000145920064968
108 0.000664800768535
109 0.000084995681134
110 -0.000106106359683
111 0.0
112 0.000449447264701
113 0.000286969691512
114 0.0
115 0.000014378620676
116 0.000011536125579
117 -0.000025914746254
118 0.000040145836245
119 0.0
120 0.0
121 -0.000054261890108
122 -0.000483611084336
123 0.000090925210046
124 -0.000001643228500
125 0.0
126 -0.000156377285695
127 0.000105313216296
128 -0.000003749992822
129 -0.000000438783020
130 0.0
131 -0.000112876797173
132 0.000646789928599
133 -0.000186759167217
134 0.000155209503602
135 0.0
136 -0.000063988302630
137 0.000510365944805
138 -0.000065449792944
139 0.000268345883942
140 0.0
 Sym=      5.1
 Ene=     -11.4462
 Spin= Alpha
 Occup=    2.000000
1 -0.000369345253085
2 -0.000399822634450
3 0.002509820765881
4 -0.000008645557029
5 0.000051796430966
6 0.0
7 -0.002472780738654
8 -0.000963546312627
9 0.0
10 -0.000112570226697
11 0.000270127333206
12 -0.000157557106509
13 0.000158673677579
14 0.0
15 0.0
16 0.000150208307393
17 0.000303158209129
18 -0.005012132595154
19 -0.000007463025782
20 0.000019468140625
21 0.0
22 -0.001416568359532
23 0.001791776836241
24 0.0
25 0.000012217910332
26 -0.000100084862958
27 0.000087866952626
28 0.000093021315196
29 0.0
30 0.0
31 0.000111002668525
32 0.000603586369993
33 -0.002961037195700
34 -0.000156296151336
35 -0.000248105518565
36 0.0
37 0.001100701946675
38 0.002409866316382
39 0.0
40 -0.000199132869777
41 -0.000171434919132
42 0.000370567788909
43 -0.000084645221670
44 0.0
45 0.0
46 -0.000185165672498
47 -0.000217305294672
48 0.003130678914946
49 -0.000026575916197
50 -0.000027765320201
51 0.0
52 0.002538948522595
53 0.000503391900586
54 0.0
55 0.000234953660543
56 -0.000054547891959