[Molden Format]
[Molpro variables]
_NUMVAR=  804.0000000000000    
_AVOGAD= 0.6022136736000000E+24
_BOLTZ= 0.1380658000000000E-22
_CLIGHT=  29979245800.00000    
_EV2006= 0.3674930886769165E-01
_EV= 0.3674932534394180E-01
_ENULL= 0.8854187817000000E-11
_KJOULE= 0.3808798324128737E-03
_KJOULE/MOL= 0.3808798324128737E-03
_CM= 0.4556335267302901E-05
_CM-1= 0.4556335267302901E-05
_DEB2SI= 0.3335641000000000E-29
_AMU2AU=  1822.888390000000    
_KCAL= 0.1593601117815568E-02
_KCAL/MOL= 0.1593601117815568E-02
_KELVIN2006= 0.3166828861084835E-05
_KELVIN= 0.3166814820820034E-05
_JOULE= 0.4359748200000000E-17
_HERTZ2006= 0.1519829850815779E-15
_HERTZ= 0.1519829846011223E-15
_HZ2006= 0.1519829850815779E-15
_HZ= 0.1519829846011223E-15
_JPCAL=  4.184000000000000    
_PLANCK= 0.6626075540000000E-33
_TOA2006= 0.5291772490000000    
_TOA= 0.5291772090000000    
_TOANG2006= 0.5291772490000000    
_TOANG= 0.5291772090000000    
_TORAD= 0.1745329251994330E-01
_TOCM=  219474.6306700000    
_TODEBYE=  2.541580000000000    
_TOEV2006=  27.21139610000000    
_TOE= 0.4803242000000000E-09
_TOEV=  27.21138390000000    
_TOHERTZ2006=  6579683899900000.    
_TOHERTZ=  6579683920700000.    
_TOHZ2006=  6579683899900000.    
_TOHZ=  6579683920700000.    
_TOK2006=  315773.3000000000    
_TOK=  315774.7000000000    
_TOKCAL=  627.5096000000000    
_TOKELVIN2006=  315773.3000000000    
_TOKELVIN=  315774.7000000000    
_TOKJ=  2625.500000000000    
_TOKJOULE=  2625.500000000000    
_TOKG= 0.1660565586000000E-26
_ANG2006=  1.889725988578923    
_ANG=  1.889726131421507    
_ANGSTROM2006=  1.889725988578923    
_ANGSTROM=  1.889726131421507    
_RPAREF=  0.000000000000000    
_RPADISS=  0.000000000000000    
_IGNORE_UNDEF=  2.000000000000000    
_STRICTCHECK=  0.000000000000000    
_SEW_ONEEL=  0.000000000000000    
_CPPDONE=FALSE
_DKROLL_DONE=  0.000000000000000    
_FOCKDONE=TRUE
_GRADONE=FALSE
_HESSDONE=FALSE
_INTDONE=TRUE
_SCFDONE=TRUE
_MODUL_BLOCK=FALSE
_MODUL_CUDA=FALSE
_MODUL_SLATER=FALSE
_MODUL_MRCC=FALSE
_MODUL_NBO6=FALSE
_MODUL_NECI=TRUE
_MODUL_AIMS=TRUE
_MRCC_EXEC=
_FITC_AO_SAVED=FALSE
_FITC_MO_SAVED=FALSE
_SHARED_FS=TRUE
_LSTYP=SEWARD
_INTYP=INTS
_GEOMTYP=ZMAT
_GRADTYP=ALASKA
_DIRECT=FALSE
_DKHO= -1.000000000000000    
_SYNCM=  0.000000000000000    
_BASIS=USERDEF
_ZORIENT=  1.000000000000000    
_NELEC=  24.00000000000000    
!SPIN=  0.000000000000000    
_QSDSTEP=  0.000000000000000    
_QSDIRC=  0.000000000000000    
_PROGRAM=MATROP
_CPUSTEP= 0.9999999999998010E-02
_SYSSTEP= 0.2000000000000002E-01
_WALLSTEP= 0.1800000000000000    
!DFSCF=  0.000000000000000    
!SCSGRD=  0.000000000000000    
_BASINP=  610.0000000000000    
_CPUTOT=  59.38000000000000    
_DFTEXFAC=  1.000000000000000    
_DMX=  0.000000000000000    
_DMY=  0.000000000000000    
_DMZ=  0.000000000000000    
_DMX_SCF= 0.6154468795152150    
_DMY_SCF=-0.7341826263592006    
_DMZ_SCF= 0.7585924422880197E-02
_EHOMO=-0.4868765751456790    
_ELUMO=-0.3721539545058562E-01
_ENUC=  58.85249957685418    
_EPS1= -20.64554073979676    
_GRADEXFAC=  9999.000000000000    
_GRADMETHOD=TRUE
_NMRMETHOD=  0.000000000000000    
!GRID_FREEZE= -1.000000000000000    
_ITERATIONS=  0.000000000000000    
_LASTNELEC=  4.000000000000000    
_LASTSPIN=  2.000000000000000    
_LASTSYM=  1.000000000000000    
_MPP_PROG=  0.000000000000000    
_NPROC_MPP=  1.000000000000000    
_NPROC_MPPX=  1.000000000000000    
_NPROC_SMP=  16.00000000000000    
_NUMSTEP=  0.000000000000000    
_ORBITAL=  2141.200000000000    
_PI=  3.141592653589793    
_SEIG_MIN= 0.2424771728835969E-01
_SEWPROP=TRUE
_STATUS=  0.000000000000000    
_SYSTOT=  1.460000000000000    
_VERSION=  2012001.000000000    
_WALLTOT=  15.79000000000000    
_DATE=24-Jan-19
_LASTORB=MCSCF
_MACHINE=Linux-4.9.0-8-amd64/nympha18.meta.zcu.cz(x86_64) (16 PROC) 64 bit serial version
_OUTPUT=/auto/brno2/home/masiz4am/git/UKRmol-in/tests/suite/C1_target_CAS2/molpro.xml
_PGROUP=C1
_TIME=16:18:24
_LIBMOL=/afs/ics.muni.cz/software/molpro-2012.1/molprop_2012_1_Linux_x86_64_i8/lib/
!VIBCNT=  0.000000000000000    
!RGHFCNT=  0.000000000000000    
!SURFREC=  0.000000000000000    
!POLYREC=  0.000000000000000    
!DIPREC=  0.000000000000000    
!VSCFREC=  0.000000000000000    
!VCIREC=  0.000000000000000    
!PVCIREC=  0.000000000000000    
!VMP2REC=  0.000000000000000    
!VMCSCFREC=  0.000000000000000    
!VMRCIREC=  0.000000000000000    
!VIBINFO=  0.000000000000000    
!GAREC=  0.000000000000000    
!SCFORB=  21002.00000000000    
!MCORB=  21412.00000000000    
!NEWMOL= -1.000000000000000    
!NEWSYM= -1.000000000000000    
_SLFILES=slscratch
_NGSSTO=  9.000000000000000    
_SIN=SIN
_COS=COS
_TAN=TAN
_ACOS=ACOS
_ASIN=ASIN
_ATAN=ATAN
_COSH=COSH
_SINH=SINH
_TANH=TANH
_ABS=ABS
_MOD=MOD
_ERF=ERF
_REFC=REFC
_ERFC=ERFC
_HYPOT=HYPOT
_J0=J0
_J1=J1
_JN=JN
_GAMMA=GAMMA
_LGAMMA=LGAMMA
_Y0=Y0
_Y1=Y1
_YN=YN
_EXP=EXP
_LOG=LOG
_LOG10=LOG10
_SQRT=SQRT
_INT=INT
_NINT=NINT
_MAX=MAX
_MIN=MIN
_COSMO=  0.000000000000000    
_COSMOIT=  0.000000000000000    
_COSMOES=  0.000000000000000    
_COSMOEDS=  0.000000000000000    
_COSMOEC=  0.000000000000000    
_COSMOEDCORR=  0.000000000000000    
_FEPSI=  1.000000000000000    
_SL_IsMM=  0.000000000000000    
_SL_NSYM=  1.000000000000000    
_SL_System_BitSw=  0.000000000000000    
_SL_Unique_atoms=  0.000000000000000    
_SL_GRAD=  0.000000000000000    
_SL_MAXUPD_Hess=  5.000000000000000    
_SL_N_PRINT_COD=  5.000000000000000    
_SL_PRINT_CODES=  0.000000000000000    
_SL_BasType=  0.000000000000000    
_SL_Energy_Pred=  0.000000000000000    
_SL_New_Coords=  0.000000000000000    
_SL_Total_Nuclea=  0.000000000000000    
_SL_Highest_Mltp=  0.000000000000000    
_SL_Ref_Geom=  0.000000000000000    
_SL_Symmetry_ope=  1.000000000000000    
_SL_agrad=  0.000000000000000    
_SL_GrdMax=  0.000000000000000    
_SL_GrdNorm=  0.000000000000000    
_SL_GrdRMS=  0.000000000000000    
!LATTICE= -1.000000000000000    
!NEWLATTICE=  0.000000000000000    
!LATGRAD_VAR=FALSE
!SEW_LATTICE=  1.000000000000000    
!LOCAL=  0.000000000000000    
!SAVEDOM= -1.000000000000000    
!RESTDOM= -1.000000000000000    
!SAVEDOM_HF= -1.000000000000000    
!RESTDOM_HF= -1.000000000000000    
!HESSREC=  0.000000000000000    
!FREQREC=  0.000000000000000    
!NMODREC=  0.000000000000000    
!GTASKS=  0.000000000000000    
!HTASKS=  0.000000000000000    
!THRCHG= 0.1000000000000000    
!DEBUG= -1.000000000000000    
!CFIT_CPHF=  0.000000000000000    
!RDOMAUX_CPHF=  3.000000000000000    
!THRAO_CPHF= 0.1000000000000000E-09
!THRMO_CPHF= 0.1000000000000000E-08
!THROV_CPHF= 0.1000000000000000E-11
!THRSW_CPHF= 0.1000000000000000E-09
!THRPROD_CPHF= 0.1000000000000000E-08
!THRAOPR_CPHF= 0.1000000000000000E-11
!CFIT_SCFGRD=  0.000000000000000    
!RDOMAUX_SCFGRD=  5.000000000000000    
!THRAO_SCFGRD= 0.1000000000000000E-09
!THRMO_SCFGRD= 0.1000000000000000E-08
!THROV_SCFGRD= 0.1000000000000000E-11
!THRSW_SCFGRD= 0.1000000000000000E-09
!THRPROD_SCFGRD= 0.1000000000000000E-08
!THRAOPR_SCFGRD= 0.1000000000000000E-11
!LOCFIT_SCF=  0.000000000000000    
!LOCFIT_MP2= -1.000000000000000    
_RIDOM=  0.000000000000000    
!CC2_METHOD=  0.000000000000000    
_BASIS2006=FALSE
_SVDDEL= -1.000000000000000    
_SVDDELA= -1.000000000000000    
_SVDDELP= -1.000000000000000    
_SVDDELF= -1.000000000000000    
_SVDDELS= -1.000000000000000    
_SVDDEL_ABS= -1.000000000000000    
_SVDDELA_ABS= -1.000000000000000    
_SVDDELP_ABS= -1.000000000000000    
_SVDDELF_ABS= -1.000000000000000    
_SVDDELS_ABS= -1.000000000000000    
_MAXBASIS=  0.000000000000000    
!OPT_CONICAL=  0.000000000000000    
!CLEARSP_JGRID=  0.000000000000000    
_4EXT_NDISKS=  1.000000000000000    
!ZMP=  0.000000000000000    
_MAXIT_ZMP=  500.0000000000000    
_MAXDIS_ZMP=  100.0000000000000    
_ACCU_ZMP=  14.00000000000000    
_SHIFTA_ZMP= -100.0000000000000    
!EMBEDFLAG=  1.000000000000000    
!EMBED=FALSE
!EMBED_F12=FALSE
!EMBEDNUC=  0.000000000000000    
_EMBEDENERGY=  0.000000000000000    
_KSPACETIME=  0.000000000000000    
_RSPACETIME=  0.000000000000000    
!EMBED_DFC=FALSE
!NUM_VOIDS=  0.000000000000000    
_IBODY=  0.000000000000000    
_EMBE_TOTAL=  0.000000000000000    
_EMBE_HF=  0.000000000000000    
_EMBE_CORR=  0.000000000000000    
!EDFT=  0.000000000000000    
_IFASTLATGRAD=  0.000000000000000    
_SINDEX=  0.000000000000000    
M_NAME=CASSCF(4,6)
M_CLOSED=  10.00000000000000    
M_OCC=  16.00000000000000    
GX1= 0.4610931400000000E-01
GY1=-0.2073029410000000    
GZ1=-0.8885491599999999    
GX2=-0.1965315030000000    
GY2=  2.519949606000000    
GZ2= 0.6211529320000000    
GX3=-0.5291232800000000E-01
GY3= -2.400518923000000    
GZ3=  1.048797924000000    
GX4=  1.211503331000000    
GY4= -2.567003783000000    
GZ4=  1.747051676000000    
_TRDMX= 0.1077356802430001E-01
_TRDMY=-0.4196157334823811E-02
_TRDMZ= 0.4785299175752331E-02
_QMXX=  1.933400913790805    
_TRQMXX=-0.1025879183314686E-01
_QMYY= -1.880077130450388    
_TRQMYY= 0.4059927380793144E-01
_QMZZ=-0.5332378334042431E-01
_TRQMZZ=-0.3034048197478446E-01
_QMXY= -2.092522978805770    
_TRQMXY= 0.2304110941123536    
_QMXZ=  1.738065129323346    
_TRQMXZ=-0.5751727157747319    
_QMYZ= -1.165446834601662    
_TRQMYZ=-0.4410479299543973E-01
_QMRR= -36.62664956378377    
_TRQMRR= 0.1107049773230737E-01
[Atoms] Angs
N     1    7         0.0243999981       -0.1096999917       -0.4701999645
O     2    8        -0.1039999922        1.3334998993        0.3286999749
O     3    8        -0.0279999981       -1.2702999038        0.5549999582
H     4    1         0.6410999514       -1.3583998974        0.9244999299
[GTO]
  1 0
 s    8  1.00
  0.9046000000D+04  0.6996174134D-03
  0.1357000000D+04  0.5386054630D-02
  0.3093000000D+03  0.2739102119D-01
  0.8773000000D+02  0.1031505920D+00
  0.2856000000D+02  0.2785706633D+00
  0.1021000000D+02  0.4482948495D+00
  0.3838000000D+01  0.2780859284D+00
  0.7466000000D+00  0.1543156123D-01
 s    8  1.00
  0.9046000000D+04 -0.3049900960D-03
  0.1357000000D+04 -0.2408026379D-02
  0.3093000000D+03 -0.1194444873D-01
  0.8773000000D+02 -0.4892599291D-01
  0.2856000000D+02 -0.1344727247D+00
  0.1021000000D+02 -0.3151125777D+00
  0.3838000000D+01 -0.2428578325D+00
  0.7466000000D+00  0.1094382207D+01
 s    1  1.00
  0.2248000000D+00  0.1000000000D+01
 p    3  1.00
  0.1355000000D+02  0.5890567677D-01
  0.2917000000D+01  0.3204611067D+00
  0.7973000000D+00  0.7530420618D+00
 p    1  1.00
  0.2185000000D+00  0.1000000000D+01
 d    1  1.00
  0.8170000000D+00  0.1000000000D+01
  
  2 0
 s    8  1.00
  0.1172000000D+05  0.7096459465D-03
  0.1759000000D+04  0.5467272292D-02
  0.4008000000D+03  0.2782311861D-01
  0.1137000000D+03  0.1047477397D+00
  0.3703000000D+02  0.2829208464D+00
  0.1327000000D+02  0.4484952387D+00
  0.5025000000D+01  0.2708168852D+00
  0.1013000000D+01  0.1545029161D-01
 s    8  1.00
  0.1172000000D+05 -0.3144434117D-03
  0.1759000000D+04 -0.2482137681D-02
  0.4008000000D+03 -0.1231635538D-01
  0.1137000000D+03 -0.5053891734D-01
  0.3703000000D+02 -0.1393849033D+00
  0.1327000000D+02 -0.3250774948D+00
  0.5025000000D+01 -0.2298483076D+00
  0.1013000000D+01  0.1095379347D+01
 s    1  1.00
  0.3023000000D+00  0.1000000000D+01
 p    3  1.00
  0.1770000000D+02  0.6267916628D-01
  0.3854000000D+01  0.3335365659D+00
  0.1046000000D+01  0.7412396416D+00
 p    1  1.00
  0.2753000000D+00  0.1000000000D+01
 d    1  1.00
  0.1185000000D+01  0.1000000000D+01
  
  3 0
 s    8  1.00
  0.1172000000D+05  0.7096459465D-03
  0.1759000000D+04  0.5467272292D-02
  0.4008000000D+03  0.2782311861D-01
  0.1137000000D+03  0.1047477397D+00
  0.3703000000D+02  0.2829208464D+00
  0.1327000000D+02  0.4484952387D+00
  0.5025000000D+01  0.2708168852D+00
  0.1013000000D+01  0.1545029161D-01
 s    8  1.00
  0.1172000000D+05 -0.3144434117D-03
  0.1759000000D+04 -0.2482137681D-02
  0.4008000000D+03 -0.1231635538D-01
  0.1137000000D+03 -0.5053891734D-01
  0.3703000000D+02 -0.1393849033D+00
  0.1327000000D+02 -0.3250774948D+00
  0.5025000000D+01 -0.2298483076D+00
  0.1013000000D+01  0.1095379347D+01
 s    1  1.00
  0.3023000000D+00  0.1000000000D+01
 p    3  1.00
  0.1770000000D+02  0.6267916628D-01
  0.3854000000D+01  0.3335365659D+00
  0.1046000000D+01  0.7412396416D+00
 p    1  1.00
  0.2753000000D+00  0.1000000000D+01
 d    1  1.00
  0.1185000000D+01  0.1000000000D+01
  
  4 0
 s    3  1.00
  0.1301000000D+02  0.3349872639D-01
  0.1962000000D+01  0.2348008012D+00
  0.4446000000D+00  0.8136829579D+00
 s    1  1.00
  0.1220000000D+00  0.1000000000D+01
 p    1  1.00
  0.7270000000D+00  0.1000000000D+01
 
 
[MO]
 Sym=      1.1
 Ene=     -20.6455
 Spin= Alpha
 Occup=    2.000000
1 -0.000118760264523
2 -0.000218166258233
3 0.001325021946006
4 0.000001983050518
5 -0.000144218807304
6 0.000127503237578
7 -0.000016245093020
8 -0.000600988266893
9 0.000700092779714
10 -0.000087698806686
11 0.000040613713848
12 0.000047085092837
13 -0.000020981982899
14 0.000012948054312
15 -0.000095609159563
16 -0.000371917270447
17 0.000023538822005
18 -0.000133180065993
19 0.000002739049454
20 0.000029335717187
21 0.000013342650303
22 -0.000014780509889
23 0.000105545237108
24 -0.000030445640004
25 0.000008574105342
26 -0.000042754998310
27 0.000034180892968
28 0.000005363289567
29 -0.000002539419299
30 -0.000006148138136
31 1.00141314108566
32 0.002189424453429
33 -0.003333382493624
34 0.002064546849288
35 0.000677941164830
36 0.000356734250342
37 -0.000128017112304
38 -0.001053977435642
39 0.000832814737627
40 0.000498425723615
41 -0.000418059945836
42 -0.000080365777778
43 -0.000154934500382
44 0.000422895723897
45 0.000252334079443
46 -0.001680049483940
47 0.000499045434542
48 0.001338870281767
49 -0.000088657919988
50 0.000656067871471
 Sym=      2.1
 Ene=     -20.6272
 Spin= Alpha
 Occup=    2.000000
1 -0.000194754660511
2 -0.000349756815285
3 0.001401853608438
4 -0.000008611810208
5 0.000123738436069
6 0.000076382563467
7 -0.000094068631593
8 0.000906470218759
9 0.000599670002150
10 -0.000130899892637
11 0.000141135053351
12 -0.000010235160714
13 -0.000025726770009
14 -0.000019173094786
15 0.000161878249259
16 1.00072364223710
17 0.000397637637986
18 -0.003762284409471
19 0.000091951472629
20 -0.000904583079866
21 -0.000443686533967
22 -0.000106368808294
23 0.001174729829770
24 0.000613523708340
25 0.000181071540260
26 -0.000180603280398
27 -0.000000468259861
28 0.000033621388434
29 0.000023825991813
30 -0.000152675567210
31 0.000404821876825
32 0.000021902270763
33 -0.000183039163920
34 0.000007543347448
35 -0.000046027615662
36 0.000010576821325
37 -0.000013008023683
38 -0.000077189435615
39 -0.000086264985315
40 0.000013574127089
41 -0.000042910697417
42 0.000029336570328
43 0.000009845303644
44 -0.000008319319023
45 0.000022147542318
46 -0.000015825928025
47 0.000127534246377
48 -0.000031047335300
49 -0.000028873822434
50 0.000014403402794
 Sym=      3.1
 Ene=     -15.8816
 Spin= Alpha
 Occup=    2.000000
1 1.00076027594095
2 -0.000021294880639
3 -0.004687813415003
4 -0.000074695450277
5 0.000024653092433
6 0.001998971313090
7 0.000112949033425
8 -0.000055407978063
9 -0.001831083996823
10 0.000227516248026
11 -0.000249153603668
12 0.000021637355641
13 0.000013565710869
14 0.000040786147657
15 -0.000019679641828
16 -0.000176925959761
17 -0.000228096130937
18 0.001194854434483
19 0.000021283758007
20 -0.000151516372844
21 -0.000061402579873
22 0.000039667646089
23 -0.000677259731245
24 -0.000086689529394
25 -0.000000113994261
26 0.000058038093567
27 -0.000057924099306
28 -0.000001805453160
29 0.000004430435887
30 -0.000022601393175
31 -0.000109996854843
32 -0.000076865615856
33 0.000729365153293
34 -0.000016473011916
35 0.000095621883688
36 -0.000140691150803
37 -0.000209083896842
38 0.000644671455744
39 -0.000319625300663
40 0.000005076198508
41 0.000033048401726
42 -0.000038124600234
43 -0.000007568634475
44 -0.000002133352456
45 0.000091345673127
46 0.000083122506027
47 0.000608885002946
48 -0.000105450819704
49 0.000072836221671
50 -0.000176165159003
 Sym=      4.1
 Ene=      -1.4838
 Spin= Alpha
 Occup=    2.000000
1 -0.001949668314536
2 0.14671512219601
3 0.12440846487545
4 0.002057791014259
5 -0.046751590492626
6 0.056128472707542
7 0.009827685954872
8 -0.013634616579150
9 0.025539391078876
10 -0.011348759704083
11 0.005318994826467
12 0.006029764877616
13 -0.002902135370473
14 0.002236242625008
15 -0.014318665504984
16 -0.000694681237552
17 0.050413419068109
18 0.047446935303799
19 0.001852961426884
20 -0.018158873268176
21 -0.006246227312113
22 -0.000379356407320
23 -0.007068665057267
24 -0.002428365601643
25 -0.001697798403799
26 0.002581435679977
27 -0.000883637276178
28 -0.000298383499464
29 -0.000074382672946
30 0.002028578266396
31 -0.013220334904506
32 0.41192658786527
33 0.32996161196196
34 0.10108044348713
35 0.027802261669305
36 0.017989870889688
37 -0.017370564533929
38 0.021368608445146
39 -0.027861215875609
40 0.004727717892966
41 -0.002824558404440
42 -0.001903159488526
43 0.000126226985818
44 0.007560149307638
45 -0.007684148251663
46 0.26900438698434
47 -0.003329750136533
48 -0.040057106137397
49 0.007158680647337
50 -0.023812034176152
 Sym=      5.1
 Ene=      -1.2867
 Spin= Alpha
 Occup=    2.000000
1 0.000590143442368
2 0.19495679761260
3 0.18453598948144
4 -0.005753199327077
5 0.073897810451263
6 0.028476108393603
7 -0.003729154923493
8 0.028944767417864
9 0.015340190243296
10 -0.007714720968223
11 0.008640660328009
12 -0.000925939359787
13 -0.000824299772254
14 -0.001839209164466
15 0.013716379939614
16 -0.002316201385979
17 0.42195910135942
18 0.45750216890512
19 0.005830723380161
20 -0.054111972060988
21 -0.027300138777695
22 0.004637620025213
23 -0.031979638415859
24 -0.015521122142653
25 -0.005312316726533
26 0.007303379985560
27 -0.001991063259027
28 -0.001491607538665
29 -0.000683750059488
30 0.007840694024005
31 0.002543162874580
32 -0.10868896343896
33 -0.088440215207048
34 -0.044612711868865
35 0.035479906153449
36 -0.039263026802269
37 0.005270549071405
38 0.009595350340356
39 -0.001890815684142
40 -0.005373184987432
41 0.004930172527481
42 0.000443012459951
43 0.001322814990526
44 -0.003838080406759
45 -0.002721569192625
46 -0.10440057895717
47 -0.004870158231979
48 0.014246843535206
49 -0.000851019926386
50 0.008021276081885
 Sym=      6.1
 Ene=      -1.0594
 Spin= Alpha
 Occup=    2.000000
1 -0.009275448467601
2 -0.40813214214096
3 -0.42028433360122
4 -0.002826259271213
5 0.063920825160882
6 0.015520892394602
7 -0.001413636446375
8 0.027909774268613
9 0.008049105185566
10 0.004887864706737
11 -0.003430893020619
12 -0.001456971686118
13 -0.001998475805781
14 0.001506371255623
15 0.011142439188475
16 0.000753256783992
17 0.24762609367558
18 0.30898211142413
19 -0.005846744193000
20 0.067868462036147
21 0.032714751690777
22 -0.002571993027566
23 0.026736752637971
24 0.014373662213698
25 0.002815684196314
26 -0.004050978031477
27 0.001235293835163
28 0.000735370310890
29 0.000452041361474
30 -0.004594706487500
31 -0.001023096125289
32 0.085966066482320
33 0.038556847874570
34 0.10428169931151
35 -0.11283449308137
36 0.15665042163645
37 0.003317521888867
38 -0.049484022946814
39 0.051303739013403
40 0.012868664022137
41 -0.009676061409622
42 -0.003192602612515
43 -0.003867772163499
44 0.009091660662172
45 0.011670581098330
46 0.19715896979929
47 0.018628346864572
48 -0.024124743690923
49 0.000651543171048
50 -0.010697687679981
 Sym=      7.1
 Ene=      -0.7651
 Spin= Alpha
 Occup=    2.000000
1 0.005362029112943
2 0.14880019732709
3 0.19659497409131
4 0.037154561401937
5 0.15411235874105
6 -0.13090281516819
7 0.026336842718237
8 0.080805172410914
9 -0.070384857705535
10 0.007197308338815
11 -0.002926904481100
12 -0.004270403857714
13 -0.009203282127887
14 0.008802559293350
15 0.020831418006527
16 -0.001053765153319
17 -0.067684122693566
18 -0.10146004567693
19 0.003428610343995
20 -0.090488191304303
21 -0.057715436391743
22 -0.000970301714871
23 -0.054966566704206
24 -0.031723804938951
25 -0.003396420532446
26 0.003411233766659
27 -0.000014813234214
28 -0.001198759124565
29 -0.000556406602748
30 0.006721842139844
31 0.000618028883029
32 -0.14321141789548
33 -0.35123255618908
34 0.42737802311733
35 -0.041571943120522
36 0.23140856289274
37 0.19483915779335
38 -0.017746986868086
39 0.10293165135887
40 0.021663261314731
41 -0.013820378692231
42 -0.007842882622499
43 0.002635959031121
44 0.012778348102842
45 0.006939465415675
46 0.34557075307678
47 0.024301244068335
48 -0.024108618460596
49 0.007654469397779
50 -0.016301469905714
 Sym=      8.1
 Ene=      -0.6292
 Spin= Alpha
 Occup=    2.000000
1 0.005473687450906
2 0.043980446197440
3 0.051409483952494
4 0.043291208693857
5 -0.17179287139620
6 -0.18848013054944
7 0.029587762143754
8 -0.10687941260311
9 -0.13501641259446
10 0.009556391085125
11 0.005867139638484
12 -0.015423530723609
13 -0.002893842400177
14 0.006017564357426
15 -0.014489345895787
16 0.002531882691867
17 0.071939520931968
18 0.11314200206658
19 -0.018557789226588
20 0.21335272815509
21 0.085556688497852
22 -0.014213186367395
23 0.14571726560041
24 0.052590138792839
25 0.006550971064515
26 -0.010548833914733
27 0.003997862850218
28 0.001419843621115
29 0.000667870453045
30 -0.007365835948869
31 -0.000361979912004
32 -0.020920097468396
33 -0.041751922390267
34 0.21253988590646
35 -0.28263167702711
36 -0.36251551830719
37 0.14512378940579
38 -0.19747075095054
39 -0.26159870342106
40 0.008997091407623
41 -0.011435444955582
42 0.002438353547959
43 -0.004146009770711
44 -0.009652845006648
45 -0.006129510788188
46 0.026299488159269
47 0.006659261581469
48 0.008337744951624
49 -0.016692091969396
50 -0.023383702192150
 Sym=      9.1
 Ene=      -0.6162
 Spin= Alpha
 Occup=    2.000000
1 -0.005527210743610
2 -0.080656556429466
3 -0.13143861578506
4 0.039379503664030
5 -0.20862856095627
6 0.28556097030667
7 0.031811523621956
8 -0.10601135906664
9 0.18823728154642
10 -0.014367757057236
11 -0.003727953210836
12 0.018095710268072
13 -0.005215158822686
14 0.006702631164661
15 -0.029343842545376
16 0.002060491037269
17 0.031006484959859
18 0.038228345370345
19 -0.010543254877282
20 0.062679928338104
21 0.066145562179179
22 -0.009668487383142
23 0.049878963175978
24 0.041267901456563
25 0.002451876931308
26 -0.000244841447547
27 -0.002207035483761
28 0.000148537013521
29 0.000737616891575
30 -0.006906163722212
31 -0.004434958289037
32 -0.10060535423105
33 -0.15746674467185
34 0.27596244118691
35 0.37768542663477
36 -0.13123697807637
37 0.20367337357291
38 0.27345780373519
39 -0.092076489092329
40 0.001205386006691
41 0.006627530600742
42 -0.007832916607434
43 0.015404557188182
44 -0.002928479805270
45 -0.012361201583684
46 0.039082222963787
47 -0.029739566362776
48 0.009051509531585
49 0.020079562949753
50 -0.009640642117560
 Sym=     10.1
 Ene=      -0.5066
 Spin= Alpha
 Occup=    2.000000
1 -0.008706183580639
2 -0.10732629462687
3 -0.16984306479191
4 -0.009619130365168
5 0.16954802815612
6 0.27515506773365
7 -0.005051960627050
8 0.091533753645737
9 0.19534352493386
10 -0.017972335006568
11 0.020056782275668
12 -0.002084447269100
13 -0.004663141972903
14 0.000078518484676
15 0.019699552961887
16 -0.003144285457322
17 -0.047979641724738
18 -0.073956391520331
19 0.026662383940610
20 -0.35953504919869
21 -0.15680593672782
22 0.020210869353716
23 -0.26767211045244
24 -0.12370322150252
25 -0.008700063926452
26 0.013895469791748
27 -0.005195405865296
28 -0.002692871594426
29 -0.001069221270129
30 0.012394485544480
31 0.000361901101913
32 0.016323788244265
33 0.037981060704636
34 0.10099026664864
35 -0.22285535234264
36 -0.31678197152876
37 0.088282339882139
38 -0.18010362084620
39 -0.23572981676970
40 0.004342773127473
41 -0.000013633938900
42 -0.004329139188573
43 -0.004635211318907
44 -0.008651024902457
45 -0.002969445047176
46 -0.030146524301497
47 -0.015523442385065
48 0.010626760470089
49 -0.013035935443404
50 -0.017629785063651
 Sym=     11.1
 Ene=      -0.4113
 Spin= Alpha
 Occup=    1.571424
1 -0.000460052723561
2 -0.003103740643061
3 -0.002688684275865
4 0.093180423194287
5 0.007755703791525
6 0.005010318085016
7 0.075084243171863
8 0.008036710974538
9 0.004271029631392
10 -0.001818977285314
11 0.001328311378009
12 0.000490665907305
13 0.012254551370014
14 0.009280055744242
15 0.001048746106003
16 -0.000487583606114
17 -0.002919913322466
18 -0.001598998943788
19 0.63599612767922
20 0.049205710235780
21 0.010123331782297
22 0.47543325647130
23 0.036509706921307
24 0.008081883737225
25 0.001977249065702
26 -0.001607811986981
27 -0.000369437078720
28 -0.010967978036845
29 -0.005529188262889
30 -0.000730905739052
31 0.000224127286678
32 0.004412578932673
33 0.007790224759567
34 -0.019846332992376
35 -0.000747343106962
36 0.003137273283839
37 -0.017842928232307
38 -0.000034924845921
39 0.000884504091247
40 -0.000960952032116
41 0.000651056036601
42 0.000309895995515
43 0.001260754814833
44 -0.001160486693884
45 0.000219798823813
46 -0.010730670303224
47 0.007371760151143
48 -0.001053232937095
49 0.001113520494820
50 0.000767515618396
 Sym=     12.1
 Ene=      -0.3883
 Spin= Alpha
 Occup=    1.570384
1 0.000908066750006
2 0.027445886810779
3 0.060884342906575
4 0.004534485814756
5 -0.007872205221024
6 -0.040776193052000
7 0.001674333999865
8 -0.019499075778480
9 -0.020342611614868
10 0.003502168847488
11 -0.011084586277959
12 0.007582417430471
13 0.001029458543151
14 -0.000521119007367
15 0.009481898424942
16 -0.000510749514087
17 -0.000748696185645
18 0.003826535492592
19 0.009887770059905
20 -0.27494261607312
21 0.59151543534668
22 0.008308523392345
23 -0.20876904671644
24 0.44389501163129
25 0.000885771491036
26 0.006412017527577
27 -0.007297789018612
28 -0.000694142145317
29 0.001079082002031
30 -0.006340866279741
31 0.001351393838550
32 -0.014928457359100
33 -0.050159728352367
34 -0.006434052994557
35 -0.074647274513685
36 0.026131162017113
37 -0.013826627013927
38 -0.058637568468481
39 0.028078902915456
40 0.000133490766846
41 -0.000644062477176
42 0.000510571710330
43 -0.002241931633627
44 0.000617433572753
45 0.002261205333873
46 0.010016634827590
47 0.024905010315974
48 -0.002861294319518
49 -0.003475011438831
50 -0.000865027239561
 Sym=     13.1
 Ene=      -0.2279
 Spin= Alpha
 Occup=    0.833249
1 -0.003148744889074
2 -0.010784287026803
3 0.008809739630451
4 0.70428874531419
5 0.052219910419956
6 0.024781739492539
7 0.42819376147611
8 0.027830387178183
9 0.018848066622689
10 0.000455046552375
11 -0.001309987230238
12 0.000854940677863
13 -0.000921511523426
14 0.013355563989987
15 0.001302277530607
16 0.000125660064725
17 -0.000082920221716
18 -0.001528460431076
19 -0.16083157807908
20 -0.006259673960555
21 -0.007274373844145
22 -0.13739804344011
23 -0.005235219379563
24 -0.005209764079419
25 0.000702238914026
26 -0.000716668730078
27 0.000014429816052
28 -0.004272338387630
29 -0.002506319307115
30 -0.000571979767118
31 -0.001176326025027
32 0.020287874214200
33 0.071929552577525
34 -0.10393393790058
35 -0.014744595127866
36 0.020576348405307
37 -0.080475360885296
38 -0.013095430574099
39 0.025244695957283
40 -0.003255834182805
41 0.002409772989473
42 0.000846061193332
43 0.006565067926318
44 -0.008267870162454
45 0.002331009229045
46 -0.070647742042970
47 -0.002459188195589
48 -0.000668523322963
49 0.000055103078755
50 0.002994457662443
 Sym=     14.1
 Ene=       1.1227
 Spin= Alpha
 Occup=    0.012929
1 -0.002539088916303
2 -0.032791925816593
3 -0.079179551698751
4 0.001318132141678
5 0.057467810485962
6 0.009843951652083
7 0.002212956145121
8 0.080269382391650
9 -0.017827050773458
10 -0.007073438007680
11 0.022699621433005
12 -0.015626183425325
13 -0.001414674560206
14 0.001068952877513
15 -0.016091365670225
16 -0.000412968761308
17 -0.005159672853632
18 -0.013452205419759
19 -0.001471257258140
20 -0.38375127819996
21 0.85822629982765
22 -0.000903698266318
23 0.43860951237031
24 -0.89833573029323
25 -0.007417328830728
26 -0.005420838257147
27 0.012838167087875
28 0.000411438255633
29 -0.003216829901803
30 0.009493800155672
31 -0.001090597697229
32 0.036224540331181
33 0.11878748822709
34 0.007150959909603
35 0.10376959055012
36 -0.038600568201924
37 0.019879389321135
38 0.080478233236718
39 -0.059945316656467
40 0.001882582440505
41 -0.002711988586612
42 0.000829406146107
43 0.002818611098983
44 -0.001096233057269
45 -0.003790712196921
46 -0.006863623857751
47 -0.061851460210342
48 0.005240473088757
49 0.005622666392704
50 0.003673254081273
 Sym=     15.1
 Ene=       1.1913
 Spin= Alpha
 Occup=    0.011007
1 0.000584041307446
2 0.000765507498205
3 -0.005835254956975
4 -0.13615589346920
5 -0.008633263110010
6 -0.005278548940090
7 -0.034242786048492
8 0.005739401528191
9 -0.002337767962084
10 -0.002469547172858
11 0.002060493481294
12 0.000409053691564
13 0.017270016411106
14 0.007872221180904
15 0.001114326343223
16 0.001279777026045
17 0.002294710291323
18 -0.005734780041543
19 -0.94800770298991
20 -0.062816908413470
21 -0.029721706801570
22 1.04859186735826
23 0.074006286659128
24 0.034536873160986
25 0.001235223661812
26 -0.001276741760242
27 0.000041518098430
28 -0.008175217939976
29 -0.001741528437943
30 -0.000519771095124
31 0.001351541151769
32 0.002207125223138
33 -0.016323324292104
34 -0.004384009079729
35 0.001860675682022
36 -0.000575994099471
37 -0.005609632110514
38 0.003272673028571
39 -0.008487038509221
40 -0.000917513772249
41 0.000374309544374
42 0.000543204227876
43 -0.000192526970949
44 0.001324919052806
45 -0.000647086149141
46 0.005155787978319
47 0.023218556100608
48 -0.002697712314223
49 0.003252587502191
50 0.000618789409315
 Sym=     16.1
 Ene=       2.5230
 Spin= Alpha
 Occup=    0.001007
1 -0.018149683516529
2 -0.024268767556746
3 0.10092851702128
4 -0.012390758178920
5 0.10634736397088
6 0.080140672131811
7 -0.013984876291569
8 0.14643479786008
9 0.084476674438853
10 -0.037257799684891
11 0.037554314628888
12 -0.000296514943997
13 -0.006681320097845
14 -0.004895523292890
15 0.041008519700418
16 -0.10632568621060
17 -0.30172901444323
18 0.15428504345822
19 -0.009877936487419
20 0.13531201872880
21 0.042065901164500
22 -0.016558625310097
23 0.16055459845000
24 0.11302965560042