[Molden Format]
[Molpro variables]
_NUMVAR=  804.0000000000000    
_AVOGAD= 0.6022136736000000E+24
_BOLTZ= 0.1380658000000000E-22
_CLIGHT=  29979245800.00000    
_EV2006= 0.3674930886769165E-01
_EV= 0.3674932534394180E-01
_ENULL= 0.8854187817000000E-11
_KJOULE= 0.3808798324128737E-03
_KJOULE/MOL= 0.3808798324128737E-03
_CM= 0.4556335267302901E-05
_CM-1= 0.4556335267302901E-05
_DEB2SI= 0.3335641000000000E-29
_AMU2AU=  1822.888390000000    
_KCAL= 0.1593601117815568E-02
_KCAL/MOL= 0.1593601117815568E-02
_KELVIN2006= 0.3166828861084835E-05
_KELVIN= 0.3166814820820034E-05
_JOULE= 0.4359748200000000E-17
_HERTZ2006= 0.1519829850815779E-15
_HERTZ= 0.1519829846011223E-15
_HZ2006= 0.1519829850815779E-15
_HZ= 0.1519829846011223E-15
_JPCAL=  4.184000000000000    
_PLANCK= 0.6626075540000000E-33
_TOA2006= 0.5291772490000000    
_TOA= 0.5291772090000000    
_TOANG2006= 0.5291772490000000    
_TOANG= 0.5291772090000000    
_TORAD= 0.1745329251994330E-01
_TOCM=  219474.6306700000    
_TODEBYE=  2.541580000000000    
_TOEV2006=  27.21139610000000    
_TOE= 0.4803242000000000E-09
_TOEV=  27.21138390000000    
_TOHERTZ2006=  6579683899900000.    
_TOHERTZ=  6579683920700000.    
_TOHZ2006=  6579683899900000.    
_TOHZ=  6579683920700000.    
_TOK2006=  315773.3000000000    
_TOK=  315774.7000000000    
_TOKCAL=  627.5096000000000    
_TOKELVIN2006=  315773.3000000000    
_TOKELVIN=  315774.7000000000    
_TOKJ=  2625.500000000000    
_TOKJOULE=  2625.500000000000    
_TOKG= 0.1660565586000000E-26
_ANG2006=  1.889725988578923    
_ANG=  1.889726131421507    
_ANGSTROM2006=  1.889725988578923    
_ANGSTROM=  1.889726131421507    
_RPAREF=  0.000000000000000    
_RPADISS=  0.000000000000000    
_IGNORE_UNDEF=  2.000000000000000    
_STRICTCHECK=  0.000000000000000    
_SEW_ONEEL=  0.000000000000000    
_CPPDONE=FALSE
_DKROLL_DONE=  0.000000000000000    
_FOCKDONE=TRUE
_GRADONE=FALSE
_HESSDONE=FALSE
_INTDONE=TRUE
_SCFDONE=TRUE
_MODUL_BLOCK=FALSE
_MODUL_CUDA=FALSE
_MODUL_SLATER=FALSE
_MODUL_MRCC=FALSE
_MODUL_NBO6=FALSE
_MODUL_NECI=TRUE
_MODUL_AIMS=TRUE
_MRCC_EXEC=
_FITC_AO_SAVED=FALSE
_FITC_MO_SAVED=FALSE
_SHARED_FS=TRUE
_LSTYP=SEWARD
_INTYP=INTS
_GEOMTYP=ZMAT
_GRADTYP=ALASKA
_DIRECT=FALSE
_DKHO= -1.000000000000000    
_SYNCM=  0.000000000000000    
_BASIS=USERDEF
_ZORIENT=  1.000000000000000    
_NELEC=  18.00000000000000    
!SPIN=  0.000000000000000    
_QSDSTEP=  0.000000000000000    
_QSDIRC=  0.000000000000000    
_PROGRAM=MATROP
_CPUSTEP= 0.9999999999999787E-02
_SYSSTEP=  0.000000000000000    
_WALLSTEP= 0.2100000000000000    
!DFSCF=  0.000000000000000    
!SCSGRD=  0.000000000000000    
_BASINP=  610.0000000000000    
_CPUTOT=  2.940000000000000    
_DFTEXFAC=  1.000000000000000    
_DMX=  0.000000000000000    
_DMY=  0.000000000000000    
_DMZ=  0.000000000000000    
_DMX_SCF=  0.000000000000000    
_DMY_SCF=  0.000000000000000    
_DMZ_SCF= 0.7443828750743386    
_EHOMO=-0.4665071449528893    
_ELUMO= 0.1919357610500780    
_ENUC=  38.06106386395650    
_EPS1= -20.65659980236658    
_EPS2= -20.65635912745088    
_GRADEXFAC=  9999.000000000000    
_GRADMETHOD=TRUE
_NMRMETHOD=  0.000000000000000    
!GRID_FREEZE= -1.000000000000000    
_ITERATIONS=  0.000000000000000    
_LASTNELEC=  10.00000000000000    
_LASTSPIN=  2.000000000000000    
_LASTSYM=  1.000000000000000    
_MPP_PROG=  0.000000000000000    
_NPROC_MPP=  1.000000000000000    
_NPROC_MPPX=  1.000000000000000    
_NPROC_SMP=  16.00000000000000    
_NUMSTEP=  0.000000000000000    
_ORBITAL=  2141.200000000000    
_PI=  3.141592653589793    
_SEIG_MIN= 0.2212598707150847E-01
_SEWPROP=TRUE
_STATUS=  0.000000000000000    
_SYSTOT=  1.240000000000000    
_VERSION=  2012001.000000000    
_WALLTOT=  25.05000000000000    
_DATE=24-Jan-19
_LASTORB=MCSCF
_MACHINE=Linux-4.9.0-8-amd64/nympha18.meta.zcu.cz(x86_64) (16 PROC) 64 bit serial version
_OUTPUT=/auto/brno2/home/masiz4am/git/UKRmol-in/tests/suite/C2_target_CAS1/molpro.xml
_PGROUP=C2
_TIME=16:18:59
_LIBMOL=/afs/ics.muni.cz/software/molpro-2012.1/molprop_2012_1_Linux_x86_64_i8/lib/
!VIBCNT=  0.000000000000000    
!RGHFCNT=  0.000000000000000    
!SURFREC=  0.000000000000000    
!POLYREC=  0.000000000000000    
!DIPREC=  0.000000000000000    
!VSCFREC=  0.000000000000000    
!VCIREC=  0.000000000000000    
!PVCIREC=  0.000000000000000    
!VMP2REC=  0.000000000000000    
!VMCSCFREC=  0.000000000000000    
!VMRCIREC=  0.000000000000000    
!VIBINFO=  0.000000000000000    
!GAREC=  0.000000000000000    
!SCFORB=  21002.00000000000    
!MCORB=  21412.00000000000    
!NEWMOL= -1.000000000000000    
!NEWSYM= -1.000000000000000    
_SLFILES=slscratch
_NGSSTO=  9.000000000000000    
_SIN=SIN
_COS=COS
_TAN=TAN
_ACOS=ACOS
_ASIN=ASIN
_ATAN=ATAN
_COSH=COSH
_SINH=SINH
_TANH=TANH
_ABS=ABS
_MOD=MOD
_ERF=ERF
_REFC=REFC
_ERFC=ERFC
_HYPOT=HYPOT
_J0=J0
_J1=J1
_JN=JN
_GAMMA=GAMMA
_LGAMMA=LGAMMA
_Y0=Y0
_Y1=Y1
_YN=YN
_EXP=EXP
_LOG=LOG
_LOG10=LOG10
_SQRT=SQRT
_INT=INT
_NINT=NINT
_MAX=MAX
_MIN=MIN
_COSMO=  0.000000000000000    
_COSMOIT=  0.000000000000000    
_COSMOES=  0.000000000000000    
_COSMOEDS=  0.000000000000000    
_COSMOEC=  0.000000000000000    
_COSMOEDCORR=  0.000000000000000    
_FEPSI=  1.000000000000000    
_SL_IsMM=  0.000000000000000    
_SL_NSYM=  2.000000000000000    
_SL_System_BitSw=  0.000000000000000    
_SL_Unique_atoms=  0.000000000000000    
_SL_GRAD=  0.000000000000000    
_SL_MAXUPD_Hess=  5.000000000000000    
_SL_N_PRINT_COD=  5.000000000000000    
_SL_PRINT_CODES=  0.000000000000000    
_SL_BasType=  0.000000000000000    
_SL_Energy_Pred=  0.000000000000000    
_SL_New_Coords=  0.000000000000000    
_SL_Total_Nuclea=  0.000000000000000    
_SL_Highest_Mltp=  0.000000000000000    
_SL_Ref_Geom=  0.000000000000000    
_SL_Symmetry_ope=  1.000000000000000    
_SL_agrad=  0.000000000000000    
_SL_GrdMax=  0.000000000000000    
_SL_GrdNorm=  0.000000000000000    
_SL_GrdRMS=  0.000000000000000    
!LATTICE= -1.000000000000000    
!NEWLATTICE=  0.000000000000000    
!LATGRAD_VAR=FALSE
!SEW_LATTICE=  1.000000000000000    
!LOCAL=  0.000000000000000    
!SAVEDOM= -1.000000000000000    
!RESTDOM= -1.000000000000000    
!SAVEDOM_HF= -1.000000000000000    
!RESTDOM_HF= -1.000000000000000    
!HESSREC=  0.000000000000000    
!FREQREC=  0.000000000000000    
!NMODREC=  0.000000000000000    
!GTASKS=  0.000000000000000    
!HTASKS=  0.000000000000000    
!THRCHG= 0.1000000000000000    
!DEBUG= -1.000000000000000    
!CFIT_CPHF=  0.000000000000000    
!RDOMAUX_CPHF=  3.000000000000000    
!THRAO_CPHF= 0.1000000000000000E-09
!THRMO_CPHF= 0.1000000000000000E-08
!THROV_CPHF= 0.1000000000000000E-11
!THRSW_CPHF= 0.1000000000000000E-09
!THRPROD_CPHF= 0.1000000000000000E-08
!THRAOPR_CPHF= 0.1000000000000000E-11
!CFIT_SCFGRD=  0.000000000000000    
!RDOMAUX_SCFGRD=  5.000000000000000    
!THRAO_SCFGRD= 0.1000000000000000E-09
!THRMO_SCFGRD= 0.1000000000000000E-08
!THROV_SCFGRD= 0.1000000000000000E-11
!THRSW_SCFGRD= 0.1000000000000000E-09
!THRPROD_SCFGRD= 0.1000000000000000E-08
!THRAOPR_SCFGRD= 0.1000000000000000E-11
!LOCFIT_SCF=  0.000000000000000    
!LOCFIT_MP2= -1.000000000000000    
_RIDOM=  0.000000000000000    
!CC2_METHOD=  0.000000000000000    
_BASIS2006=FALSE
_SVDDEL= -1.000000000000000    
_SVDDELA= -1.000000000000000    
_SVDDELP= -1.000000000000000    
_SVDDELF= -1.000000000000000    
_SVDDELS= -1.000000000000000    
_SVDDEL_ABS= -1.000000000000000    
_SVDDELA_ABS= -1.000000000000000    
_SVDDELP_ABS= -1.000000000000000    
_SVDDELF_ABS= -1.000000000000000    
_SVDDELS_ABS= -1.000000000000000    
_MAXBASIS=  0.000000000000000    
!OPT_CONICAL=  0.000000000000000    
!CLEARSP_JGRID=  0.000000000000000    
_4EXT_NDISKS=  1.000000000000000    
!ZMP=  0.000000000000000    
_MAXIT_ZMP=  500.0000000000000    
_MAXDIS_ZMP=  100.0000000000000    
_ACCU_ZMP=  14.00000000000000    
_SHIFTA_ZMP= -100.0000000000000    
!EMBEDFLAG=  1.000000000000000    
!EMBED=FALSE
!EMBED_F12=FALSE
!EMBEDNUC=  0.000000000000000    
_EMBEDENERGY=  0.000000000000000    
_KSPACETIME=  0.000000000000000    
_RSPACETIME=  0.000000000000000    
!EMBED_DFC=FALSE
!NUM_VOIDS=  0.000000000000000    
_IBODY=  0.000000000000000    
_EMBE_TOTAL=  0.000000000000000    
_EMBE_HF=  0.000000000000000    
_EMBE_CORR=  0.000000000000000    
!EDFT=  0.000000000000000    
_IFASTLATGRAD=  0.000000000000000    
_SINDEX=  0.000000000000000    
M_NAME=CASSCF(10,8)
M_CLOSED=  2.000000000000000    
M_OCC=  6.000000000000000    
GX1=  0.000000000000000    
GY1=  1.315816206000000    
GZ1=-0.1043128750000000    
GX2=  1.477198805000000    
GY2=  1.699052636000000    
GZ2= 0.8345029970000000    
GX3=  0.000000000000000    
GY3= -1.315816206000000    
GZ3=-0.1043128750000000    
GX4= -1.477198805000000    
GY4= -1.699052636000000    
GZ4= 0.8345029970000000    
_TRDMX=  0.000000000000000    
_TRDMY=  0.000000000000000    
_TRDMZ= 0.3807006610929340E-01
_QMXX=  1.317851596833982    
_TRQMXX=-0.7495993231728201E-01
_QMYY=-0.4437761832723233    
_TRQMYY= 0.1734021640795506    
_QMZZ=-0.8740754135616626    
_TRQMZZ=-0.9844223176226867E-01
_QMXY=  3.128484066437252    
_TRQMXY=-0.1559084653984294    
_QMXZ=  0.000000000000000    
_TRQMXZ=  0.000000000000000    
_QMYZ=  0.000000000000000    
_TRQMYZ=  0.000000000000000    
_QMRR= -23.52696735084014    
_TRQMRR=-0.1178952965149536    
[Atoms] Angs
O     1    8         0.0000000000        0.6962999474       -0.0551999961
H     2    1         0.7816999408        0.8990999319        0.4415999669
O     3    8         0.0000000000       -0.6962999474       -0.0551999961
H     4    1        -0.7816999408       -0.8990999319        0.4415999669
[GTO]
  1 0
 s    8  1.00
  0.1172000000D+05  0.7096459465D-03
  0.1759000000D+04  0.5467272292D-02
  0.4008000000D+03  0.2782311861D-01
  0.1137000000D+03  0.1047477397D+00
  0.3703000000D+02  0.2829208464D+00
  0.1327000000D+02  0.4484952387D+00
  0.5025000000D+01  0.2708168852D+00
  0.1013000000D+01  0.1545029161D-01
 s    8  1.00
  0.1172000000D+05 -0.3144434117D-03
  0.1759000000D+04 -0.2482137681D-02
  0.4008000000D+03 -0.1231635538D-01
  0.1137000000D+03 -0.5053891734D-01
  0.3703000000D+02 -0.1393849033D+00
  0.1327000000D+02 -0.3250774948D+00
  0.5025000000D+01 -0.2298483076D+00
  0.1013000000D+01  0.1095379347D+01
 s    1  1.00
  0.3023000000D+00  0.1000000000D+01
 p    3  1.00
  0.1770000000D+02  0.6267916628D-01
  0.3854000000D+01  0.3335365659D+00
  0.1046000000D+01  0.7412396416D+00
 p    1  1.00
  0.2753000000D+00  0.1000000000D+01
 d    1  1.00
  0.1185000000D+01  0.1000000000D+01
  
  3 0
 s    8  1.00
  0.1172000000D+05  0.7096459465D-03
  0.1759000000D+04  0.5467272292D-02
  0.4008000000D+03  0.2782311861D-01
  0.1137000000D+03  0.1047477397D+00
  0.3703000000D+02  0.2829208464D+00
  0.1327000000D+02  0.4484952387D+00
  0.5025000000D+01  0.2708168852D+00
  0.1013000000D+01  0.1545029161D-01
 s    8  1.00
  0.1172000000D+05 -0.3144434117D-03
  0.1759000000D+04 -0.2482137681D-02
  0.4008000000D+03 -0.1231635538D-01
  0.1137000000D+03 -0.5053891734D-01
  0.3703000000D+02 -0.1393849033D+00
  0.1327000000D+02 -0.3250774948D+00
  0.5025000000D+01 -0.2298483076D+00
  0.1013000000D+01  0.1095379347D+01
 s    1  1.00
  0.3023000000D+00  0.1000000000D+01
 p    3  1.00
  0.1770000000D+02  0.6267916628D-01
  0.3854000000D+01  0.3335365659D+00
  0.1046000000D+01  0.7412396416D+00
 p    1  1.00
  0.2753000000D+00  0.1000000000D+01
 d    1  1.00
  0.1185000000D+01  0.1000000000D+01
  
  2 0
 s    3  1.00
  0.1301000000D+02  0.3349872639D-01
  0.1962000000D+01  0.2348008012D+00
  0.4446000000D+00  0.8136829579D+00
 s    1  1.00
  0.1220000000D+00  0.1000000000D+01
 p    1  1.00
  0.7270000000D+00  0.1000000000D+01
  
  4 0
 s    3  1.00
  0.1301000000D+02  0.3349872639D-01
  0.1962000000D+01  0.2348008012D+00
  0.4446000000D+00  0.8136829579D+00
 s    1  1.00
  0.1220000000D+00  0.1000000000D+01
 p    1  1.00
  0.7270000000D+00  0.1000000000D+01
 
 
[MO]
 Sym=      1.1
 Ene=     -20.6566
 Spin= Alpha
 Occup=    2.000000
1 0.70777786472325
2 0.000846765190459
3 -0.002177869130607
4 0.000726686997571
5 -0.000974013124628
6 0.000271710260362
7 -0.000394038855943
8 0.000039780982315
9 -0.000247800085128
10 0.000172569850870
11 -0.000208121852751
12 0.000035552001881
13 0.000041785805871
14 0.000079153998653
15 0.000021347796033
16 0.70777786472325
17 0.000846765190459
18 -0.002177869130607
19 -0.000726686997571
20 0.000974013124628
21 0.000271710260362
22 0.000394038855943
23 -0.000039780982315
24 -0.000247800085128
25 0.000172569850870
26 -0.000208121852751
27 0.000035552001881
28 0.000041785805871
29 -0.000079153998653
30 -0.000021347796033
31 -0.000280505499903
32 0.000473734094972
33 0.000394347758974
34 -0.000027197975022
35 0.000250154841400
36 -0.000280505499903
37 0.000473734094972
38 -0.000394347758974
39 0.000027197975022
40 0.000250154841400
 Sym=      1.2
 Ene=     -20.6564
 Spin= Alpha
 Occup=    2.000000
1 0.70788878127554
2 0.000891409488495
3 -0.003651826542637
4 0.000496031419081
5 -0.000443217154458
6 0.000316250490818
7 -0.000391758653491
8 0.001348738443839
9 -0.000175025050095
10 0.000153620132198
11 -0.000144596765882
12 -0.000009023366316
13 0.000018193651939
14 0.000077604487013
15 0.000033591125340
16 -0.70788878127554
17 -0.000891409488495
18 0.003651826542637
19 0.000496031419081
20 -0.000443217154458
21 -0.000316250490818
22 -0.000391758653491
23 0.001348738443839
24 0.000175025050095
25 -0.000153620132198
26 0.000144596765882
27 0.000009023366316
28 -0.000018193651939
29 0.000077604487013
30 0.000033591125340
31 -0.000221247948702
32 0.000071906876104
33 0.000472523877505
34 0.000069659189273
35 0.000303450775700
36 0.000221247948702
37 -0.000071906876104
38 0.000472523877505
39 0.000069659189273
40 -0.000303450775700
 Sym=      2.1
 Ene=      -1.3414
 Spin= Alpha
 Occup=    2.000000
1 -0.004141213656209
2 0.32835886745718
3 0.35112515933386
4 -0.14570023834898
5 0.020949641080881
6 -0.018941639774214
7 -0.11769417940691
8 0.037642048609224
9 -0.014281453845378
10 -0.007878408682954
11 0.011310712648742
12 -0.003432303965788
13 -0.000293597268147
14 -0.001445073093515
15 0.000741245213519
16 -0.004141213656209
17 0.32835886745718
18 0.35112515933386
19 0.14570023834898
20 -0.020949641080881
21 -0.018941639774214
22 0.11769417940691
23 -0.037642048609224
24 -0.014281453845378
25 -0.007878408682954
26 0.011310712648742
27 -0.003432303965788
28 -0.000293597268147
29 0.001445073093515
30 -0.000741245213519
31 0.006766479033011
32 -0.010359172646287
33 -0.012560149340402
34 0.000401579908782
35 -0.004649681949240
36 0.006766479033011
37 -0.010359172646287
38 0.012560149340402
39 -0.000401579908782
40 -0.004649681949240
 Sym=      2.2
 Ene=      -1.0278
 Spin= Alpha
 Occup=    2.000000
1 0.001106470485292
2 0.32542413726875
3 0.40043229070764
4 -0.19866494438128
5 0.083905092639643
6 -0.024716652261981
7 -0.13675651321122
8 0.040767581070903
9 -0.019488075287323
10 -0.000177280368099
11 -0.004071412476065
12 0.004248692844164
13 0.009469479351186
14 -0.002403821458548
15 0.000661010588763
16 -0.001106470485292
17 -0.32542413726875
18 -0.40043229070764
19 -0.19866494438128
20 0.083905092639643
21 0.024716652261981
22 -0.13675651321122
23 0.040767581070903
24 0.019488075287323
25 0.000177280368099
26 0.004071412476065
27 -0.004248692844164
28 -0.009469479351186
29 -0.002403821458548
30 0.000661010588763
31 -0.004332081537785
32 -0.023022778426951
33 -0.009474596801294
34 0.004131583628165
35 -0.003422763466503
36 0.004332081537785
37 0.023022778426951
38 -0.009474596801294
39 0.004131583628165
40 0.003422763466503
 Sym=      3.2
 Ene=      -0.9725
 Spin= Alpha
 Occup=    1.984440
1 0.001951134998963
2 0.14029628492249
3 0.046942928846216
4 0.31924870233554
5 0.023736101232762
6 0.095660511524036
7 0.15255263563234
8 -0.005830367139372
9 0.027559756095818
10 0.010431022184819
11 -0.009056231998016
12 -0.001374790186803
13 -0.009453888286329
14 0.009192755696557
15 0.002418407350382
16 -0.001951134998963
17 -0.14029628492249
18 -0.046942928846216
19 0.31924870233554
20 0.023736101232762
21 -0.095660511524036
22 0.15255263563234
23 -0.005830367139372
24 -0.027559756095818
25 -0.010431022184819
26 0.009056231998016
27 0.001374790186803
28 0.009453888286329
29 0.009192755696557
30 0.002418407350382
31 0.27576877740521
32 0.041866963165828
33 -0.032473989492804
34 -0.014220648289341
35 -0.023628300875825
36 -0.27576877740521
37 -0.041866963165828
38 -0.032473989492804
39 -0.014220648289341
40 0.023628300875825
 Sym=      3.1
 Ene=      -0.8163
 Spin= Alpha
 Occup=    1.981367
1 0.001156018215675
2 0.060264246980716
3 -0.072614394856009
4 0.30306292177873
5 -0.007906345682127
6 0.23093026088769
7 0.15410205319072
8 -0.025079136522010
9 0.11641241860817
10 0.007502692481942
11 -0.005392553245353
12 -0.002110139236590
13 0.004737648449211
14 0.011053893356003
15 -0.008376164343714
16 0.001156018215675
17 0.060264246980716
18 -0.072614394856009
19 -0.30306292177873
20 0.007906345682127
21 0.23093026088769
22 -0.15410205319072
23 0.025079136522010
24 0.11641241860817
25 0.007502692481942
26 -0.005392553245353
27 -0.002110139236590
28 0.004737648449211
29 -0.011053893356003
30 0.008376164343714
31 0.29480305715307
32 0.050560373012350
33 -0.031980100580683
34 -0.011283101834563
35 -0.020374580786316
36 0.29480305715307
37 0.050560373012350
38 0.031980100580683
39 0.011283101834563
40 -0.020374580786316
 Sym=      4.1
 Ene=      -0.7349
 Spin= Alpha
 Occup=    1.929577
1 -0.002168370938273
2 0.013910649699179
3 -0.036697963248471
4 0.049960903746360
5 -0.45764807243772
6 -0.018678652994056
7 0.062911555758563
8 -0.25590678438890
9 0.006035241700316
10 -0.013005588258109
11 0.026960339361451
12 -0.013954751103342
13 -0.007719588747484
14 0.000037144152859
15 -0.004278959495068
16 -0.002168370938273
17 0.013910649699179
18 -0.036697963248471
19 -0.049960903746360
20 0.45764807243772
21 -0.018678652994056
22 -0.062911555758563
23 0.25590678438890
24 0.006035241700316
25 -0.013005588258109
26 0.026960339361451
27 -0.013954751103342
28 -0.007719588747484
29 -0.000037144152859
30 0.004278959495068
31 -0.066166651416754
32 -0.044349912811102
33 0.011884000608657
34 -0.008699513173945
35 0.004782853020099
36 -0.066166651416754
37 -0.044349912811102
38 -0.011884000608657
39 0.008699513173945
40 0.004782853020099
 Sym=      5.1
 Ene=      -0.5150
 Spin= Alpha
 Occup=    1.576586
1 -0.001312118603035
2 -0.046078268054554
3 -0.015959072443722
4 -0.27677212409974
5 -0.035685770954932
6 0.35258117293088
7 -0.19308720343757
8 -0.018826330360953
9 0.26205325050636
10 -0.009459102052591
11 0.002377207251183
12 0.007081894801407
13 -0.003238190377433
14 0.002608528008019
15 -0.016175751539042
16 -0.001312118603035
17 -0.046078268054554
18 -0.015959072443722
19 0.27677212409974
20 0.035685770954932
21 0.35258117293088
22 0.19308720343757
23 0.018826330360953
24 0.26205325050636
25 -0.009459102052591
26 0.002377207251183
27 0.007081894801407
28 -0.003238190377433
29 -0.002608528008019
30 0.016175751539042
31 -0.075592421586935
32 -0.014218347005446
33 -0.001870029376683
34 -0.002419220330624
35 0.020881147138334
36 -0.075592421586935
37 -0.014218347005446
38 0.001870029376683
39 0.002419220330624
40 0.020881147138334
 Sym=      4.2
 Ene=      -0.3880
 Spin= Alpha
 Occup=    1.534599
1 -0.000426488632592
2 -0.044248755396295
3 -0.097637013795071
4 -0.14483802914289
5 -0.004978062705144
6 0.46963712954975
7 -0.11504467506735
8 -0.005320470299469
9 0.33243678880721
10 -0.005114625769925
11 -0.000541094428100
12 0.005655720198025
13 0.005161667324334
14 0.009376176991030
15 0.004563083176933
16 0.000426488632592
17 0.044248755396295
18 0.097637013795071
19 -0.14483802914289
20 -0.004978062705144
21 -0.46963712954975
22 -0.11504467506735
23 -0.005320470299469
24 -0.33243678880721
25 0.005114625769925
26 0.000541094428100
27 -0.005655720198025
28 -0.005161667324334
29 0.009376176991030
30 0.004563083176933
31 0.096197385059323
32 0.025545197097998
33 -0.019102878389560
34 -0.002059425896510
35 0.011895894499737
36 -0.096197385059323
37 -0.025545197097998
38 -0.019102878389560
39 -0.002059425896510
40 -0.011895894499737
 Sym=      5.2
 Ene=       0.1407
 Spin= Alpha
 Occup=    0.513684
1 -0.007746949355827
2 -0.17686986580460
3 -0.48321184248677
4 -0.051173340891321
5 0.53519530058661
6 -0.040060050045651
7 -0.036338394610504
8 0.48475510651636
9 -0.029097217722933
10 -0.010016371777560
11 0.017259249220736
12 -0.007242877443177
13 0.013304312214301
14 -0.000853232451470
15 0.006409331058638
16 0.007746949355827
17 0.17686986580460
18 0.48321184248677
19 -0.051173340891321
20 0.53519530058661
21 0.040060050045651
22 -0.036338394610504
23 0.48475510651636
24 0.029097217722933
25 0.010016371777560
26 -0.017259249220736
27 0.007242877443177
28 -0.013304312214301
29 -0.000853232451470
30 0.006409331058638
31 0.056599285829698
32 0.19623705815121
33 -0.000158433923945
34 0.025782522345049
35 -0.000616288651458
36 -0.056599285829698
37 -0.19623705815121
38 -0.000158433923945
39 0.025782522345049
40 0.000616288651458
 Sym=      6.1
 Ene=       0.1452
 Spin= Alpha
 Occup=    0.441682
1 0.002921948753443
2 -0.11633044423107
3 -0.52936159084437
4 -0.19177428234945
5 -0.071805245162233
6 -0.12713276267584
7 -0.17690425261491
8 -0.085823554906029
9 -0.12916702260895
10 0.002635278147829
11 -0.005255661155592
12 0.002620383007764
13 0.000033327640744
14 -0.001798153441095
15 0.004970156704939
16 0.002921948753443
17 -0.11633044423107
18 -0.52936159084437
19 0.19177428234945
20 0.071805245162233
21 -0.12713276267584
22 0.17690425261491
23 0.085823554906029
24 -0.12916702260895
25 0.002635278147829
26 -0.005255661155592
27 0.002620383007764
28 0.000033327640744
29 0.001798153441095
30 -0.004970156704939
31 0.16676246748912
32 0.79939178698108
33 0.017602821523835
34 0.000685410982017
35 0.012184250720006
36 0.16676246748912
37 0.79939178698108
38 -0.017602821523835
39 -0.000685410982017
40 0.012184250720006
 Sym=      6.2
 Ene=       0.5304
 Spin= Alpha
 Occup=    0.038064
1 -0.053162108976333
2 -0.18505698380643
3 -0.11789837962256
4 -0.40546759502254
5 -0.28085029337969
6 -0.22267111182175
7 -0.016361694988206
8 -0.015764236463935
9 -0.021532784363847
10 -0.013186628897551
11 0.005077734742978
12 0.008108894154573
13 -0.025222307340894
14 -0.005492217199073
15 0.000516336255366
16 0.053162108976333
17 0.18505698380643
18 0.11789837962256
19 -0.40546759502254
20 -0.28085029337969
21 0.22267111182175
22 -0.016361694988206
23 -0.015764236463935
24 0.021532784363847
25 0.013186628897551
26 -0.005077734742978
27 -0.008108894154573
28 0.025222307340894
29 -0.005492217199073
30 0.000516336255366
31 0.41259932557368
32 0.37330356997736
33 0.031495257281730
34 -0.006696022040495
35 0.019901401832242
36 -0.41259932557368
37 -0.37330356997736
38 0.031495257281730
39 -0.006696022040495
40 -0.019901401832242
 Sym=      7.2
 Ene=       0.6628
 Spin= Alpha
 Occup=    0.000000
1 -0.060412688778562
2 -0.16660631592196
3 0.33172236813604
4 -0.12808799282114
5 0.059618035392234
6 -0.12158176703993
7 0.24599770944683
8 0.27704271357470
9 0.11352369354566
10 0.031487455936472
11 -0.018954337710456
12 -0.012533118226016
13 0.029185210279061
14 0.057334055270683
15 0.010770169252265
16 0.060412688778562
17 0.16660631592196
18 -0.33172236813604
19 -0.12808799282114
20 0.059618035392234
21 0.12158176703993
22 0.24599770944683
23 0.27704271357470
24 -0.11352369354566
25 -0.031487455936472
26 0.018954337710456
27 0.012533118226016
28 -0.029185210279061
29 0.057334055270683
30 0.010770169252265
31 0.62466474669706
32 -1.34161520921797
33 0.17990939484788
34 0.039275917839127
35 0.11495230269183
36 -0.62466474669706
37 1.34161520921797
38 0.17990939484788
39 0.039275917839127
40 -0.11495230269183
 Sym=      7.1
 Ene=       0.8015
 Spin= Alpha
 Occup=    0.000000
1 -0.030640602278748
2 -0.085287433245935
3 0.26774871788600
4 -0.28159272269602
5 0.037187002483650
6 -0.11303096731797
7 -0.005628939295472
8 -0.091790008335411
9 0.012668735077217
10 0.049745105139614
11 -0.044650802764846
12 -0.005094302374768
13 0.015612762137527
14 0.064395105529592
15 0.028788036887321
16 -0.030640602278748
17 -0.085287433245935
18 0.26774871788600
19 0.28159272269602
20 -0.037187002483650
21 -0.11303096731797
22 0.005628939295472
23 0.091790008335411
24 0.012668735077217
25 0.049745105139614
26 -0.044650802764846
27 -0.005094302374768
28 0.015612762137527
29 -0.064395105529592
30 -0.028788036887321
31 0.79233538401441
32 -0.74780772586444
33 0.19746035532579
34 0.056224168362223
35 0.12384278512125
36 0.79233538401441
37 -0.74780772586444
38 -0.19746035532579
39 -0.056224168362223
40 0.12384278512125
 Sym=      8.2
 Ene=       1.0614
 Spin= Alpha
 Occup=    0.000000
1 0.006267032272673
2 -0.10215160934720
3 -0.80591567995630
4 0.41558758388820
5 -0.37740785176067
6 -0.013890910954770
7 -0.63954675161409
8 0.88699097413060
9 -0.23475574126499
10 0.016189691542606
11 -0.027008390090152
12 0.010818698547546
13 0.005140887520018
14 0.010256653088343
15 -0.003542376281113
16 -0.006267032272673
17 0.10215160934720
18 0.80591567995630
19 0.41558758388820
20 -0.37740785176067
21 0.013890910954770
22 -0.63954675161409
23 0.88699097413060
24 0.23475574126499
25 -0.016189691542606
26 0.027008390090152
27 -0.010818698547546
28 -0.005140887520018
29 0.010256653088343
30 -0.003542376281113
31 0.46547996863408
32 0.009035060470600
33 -0.10027386053055
34 -0.024865465171116
35 -0.052041830110544
36 -0.46547996863408
37 -0.009035060470600
38 -0.10027386053055
39 -0.024865465171116
40 0.052041830110544
 Sym=      8.1
 Ene=       1.0991
 Spin= Alpha
 Occup=    0.000000
1 0.039728499352448
2 0.14777909955971
3 0.37324476444637
4 -0.14965232716510
5 -0.19572399459518
6 -0.43492234575083
7 0.75287641952281
8 0.30574979388623
9 0.62374837529928
10 -0.031558519786193
11 0.052131401272168
12 -0.020572881485975
13 0.014551085676581
14 0.004013170403115
15 0.007005224025477
16 0.039728499352448
17 0.14777909955971
18 0.37324476444637
19 0.14965232716510
20 0.19572399459518
21 -0.43492234575083
22 -0.75287641952281
23 -0.30574979388623
24 0.62374837529928
25 -0.031558519786193
26 0.052131401272168
27 -0.020572881485975
28 0.014551085676581
29 -0.004013170403115
30 -0.007005224025477
31 -0.56682503119488
32 -0.12501117476514
33 0.12931129536637
34 0.16242230533705
35 0.12622680041241
36 -0.56682503119488
37 -0.12501117476514
38 -0.12931129536637
39 -0.16242230533705
40 0.12622680041241
 Sym=      9.2
 Ene=       1.1040
 Spin= Alpha
 Occup=    0.000000
1 -0.007974951411182
2 -0.035753150873062
3 -0.26569471944445
4 -0.24475972198078
5 -0.37088637018482
6 0.11630627955736
7 0.65847949150609
8 1.41577646323180
9 0.19567324189336
10 0.006545309789238
11 -0.025831757629865
12 0.019286447840628
13 -0.037772009663610
14 -0.017666536193673
15 0.002512270627877
16 0.007974951411182
17 0.035753150873062
18 0.26569471944445
19 -0.24475972198078
20 -0.37088637018482
21 -0.11630627955736
22 0.65847949150609
23 1.41577646323180
24 -0.19567324189336
25 -0.006545309789238
26 0.025831757629865
27 -0.019286447840628
28 0.037772009663610
29 -0.017666536193673
30 0.002512270627877
31 -0.48045774596849
32 -0.60236291474162
33 0.10465607726647
34 -0.13363479167251
35 0.064175717371842
36 0.48045774596849
37 0.60236291474162
38 0.10465607726647
39 -0.13363479167251
40 -0.064175717371842
 Sym=      9.1
 Ene=       1.1201
 Spin= Alpha
 Occup=    0.000000
1 0.010764299921798
2 0.022948919454227
3 -0.19239636090556
4 0.31091735081704
5 0.26393960620166
6 -0.47080230633412
7 -0.61290603390771
8 -0.25677156891639
9 0.34701778634644
10 0.026616610651399
11 -0.043999004719428
12 0.017382394068029
13 -0.011930194151715
14 -0.006273663037359
15 -0.007366930859697
16 0.010764299921798
17 0.022948919454227
18 -0.19239636090556
19 -0.31091735081704
20 -0.26393960620166
21 -0.47080230633412
22 0.61290603390771
23 0.25677156891639
24 0.34701778634644
25 0.026616610651399
26 -0.043999004719428
27 0.017382394068029
28 -0.011930194151715
29 0.006273663037359
30 0.007366930859697
31 0.19088685064982
32 -0.012323853379460
33 -0.014142476938461
34 -0.20540672425845
35 -0.027563794624310
36 0.19088685064982
37 -0.012323853379460
38 0.014142476938461
39 0.20540672425845
40 -0.027563794624310
 Sym=     10.2
 Ene=       1.1951
 Spin= Alpha
 Occup=    0.000000
1 -0.009399371378400
2 0.024798170967546
3 0.31042935512011
4 0.13699784922041
5 -0.052073179154621
6 -0.54804040768280
7 0.17197895364177
8 0.055430503052370
9 1.07312183939730
10 -0.002979596776965
11 -0.001269549964043
12 0.004249146741007
13 -0.001995232836148
14 -0.025493723509274
15 0.024005776726505
16 0.009399371378400
17 -0.024798170967546
18 -0.31042935512011
19 0.13699784922041
20 -0.052073179154621
21 0.54804040768280
22 0.17197895364177
23 0.055430503052370
24 -1.07312183939730
25 0.002979596776965
26 0.001269549964043
27 -0.004249146741007
28 0.001995232836148
29 -0.025493723509274
30 0.024005776726505
31 -0.46997188174086
32 -0.078076084005343
33 0.065468012611120
34 0.17299913407214
35 0.037435768634543
36 0.46997188174086
37 0.078076084005343
38 0.065468012611120
39 0.17299913407214
40 -0.037435768634543
 Sym=     10.1
 Ene=       1.2895
 Spin= Alpha
 Occup=    0.000000
1 -0.10318529856672
2 -0.28263055899425
3 0.39056741092103
4 0.32643958536187
5 -0.51346758764282
6 -0.049516897935122
7 -0.67933574506887
8 0.55013685748411
9 -0.030496208784084
10 -0.019840750227828
11 0.062037736747115
12 -0.042196986519286
13 -0.012709937284536
14 0.031475587478077
15 0.018973178207506
16 -0.10318529856672
17 -0.28263055899425
18 0.39056741092103
19 -0.32643958536187
20 0.51346758764282
21 -0.049516897935122
22 0.67933574506887
23 -0.55013685748411
24 -0.030496208784084
25 -0.019840750227828
26 0.062037736747115
27 -0.042196986519286
28 -0.012709937284536
29 -0.031475587478077
30 -0.018973178207506
31 0.37319216429869
32 -0.23837696974811
33 -0.014335143679005
34 0.021691114979975
35 0.037820083158381
36 0.37319216429869
37 -0.23837696974811
38 0.014335143679005
39 -0.021691114979975