[Molden Format]
[Molpro variables]
_NUMVAR=  784.0000000000000    
_AVOGAD= 0.6022136736000000E+24
_BOLTZ= 0.1380658000000000E-22
_CLIGHT=  29979245800.00000    
_EV2006= 0.3674930886769165E-01
_EV= 0.3674932534394180E-01
_ENULL= 0.8854187817000000E-11
_KJOULE= 0.3808798324128737E-03
_KJOULE/MOL= 0.3808798324128737E-03
_CM= 0.4556335267302901E-05
_CM-1= 0.4556335267302901E-05
_DEB2SI= 0.3335641000000000E-29
_AMU2AU=  1822.888390000000    
_KCAL= 0.1593601117815568E-02
_KCAL/MOL= 0.1593601117815568E-02
_KELVIN2006= 0.3166828861084835E-05
_KELVIN= 0.3166814820820034E-05
_JOULE= 0.4359748200000000E-17
_HERTZ2006= 0.1519829850815779E-15
_HERTZ= 0.1519829846011223E-15
_HZ2006= 0.1519829850815779E-15
_HZ= 0.1519829846011223E-15
_JPCAL=  4.184000000000000    
_PLANCK= 0.6626075540000000E-33
_TOA2006= 0.5291772490000000    
_TOA= 0.5291772090000000    
_TOANG2006= 0.5291772490000000    
_TOANG= 0.5291772090000000    
_TORAD= 0.1745329251994330E-01
_TOCM=  219474.6306700000    
_TODEBYE=  2.541580000000000    
_TOEV2006=  27.21139610000000    
_TOE= 0.4803242000000000E-09
_TOEV=  27.21138390000000    
_TOHERTZ2006=  6579683899900000.    
_TOHERTZ=  6579683920700000.    
_TOHZ2006=  6579683899900000.    
_TOHZ=  6579683920700000.    
_TOK2006=  315773.3000000000    
_TOK=  315774.7000000000    
_TOKCAL=  627.5096000000000    
_TOKELVIN2006=  315773.3000000000    
_TOKELVIN=  315774.7000000000    
_TOKJ=  2625.500000000000    
_TOKJOULE=  2625.500000000000    
_TOKG= 0.1660565586000000E-26
_ANG2006=  1.889725988578923    
_ANG=  1.889726131421507    
_ANGSTROM2006=  1.889725988578923    
_ANGSTROM=  1.889726131421507    
_RPAREF=  0.000000000000000    
_RPADISS=  0.000000000000000    
_IGNORE_UNDEF=  2.000000000000000    
_STRICTCHECK=  0.000000000000000    
_SEW_ONEEL=  0.000000000000000    
_CPPDONE=FALSE
_DKROLL_DONE=  0.000000000000000    
_FOCKDONE=TRUE
_GRADONE=FALSE
_HESSDONE=FALSE
_INTDONE=TRUE
_SCFDONE=TRUE
_MODUL_BLOCK=FALSE
_MODUL_CUDA=FALSE
_MODUL_SLATER=FALSE
_MODUL_MRCC=FALSE
_MODUL_NBO6=FALSE
_MODUL_NECI=TRUE
_MODUL_AIMS=TRUE
_MRCC_EXEC=
_FITC_AO_SAVED=FALSE
_FITC_MO_SAVED=FALSE
_SHARED_FS=TRUE
_LSTYP=SEWARD
_INTYP=INTS
_GEOMTYP=ZMAT
_GRADTYP=ALASKA
_DIRECT=FALSE
_DKHO= -1.000000000000000    
_SYNCM=  0.000000000000000    
_BASIS=USERDEF
_ZORIENT=  1.000000000000000    
_NELEC=  24.00000000000000    
!SPIN=  0.000000000000000    
_QSDSTEP=  0.000000000000000    
_QSDIRC=  0.000000000000000    
_PROGRAM=HF-SCF
_CPUSTEP=  3.290000000000000    
_SYSSTEP= 0.3000000000000000E-01
_WALLSTEP=  1.000000000000000    
!DFSCF=  0.000000000000000    
!SCSGRD=  0.000000000000000    
_BASINP=  610.0000000000000    
_CPUTOT=  3.630000000000000    
_CPUSORT= 0.6000000000000000E-01
_SYSSORT= 0.6000000000000000E-01
_WALLSORT= 0.1600000001490116    
_DFTEXFAC=  1.000000000000000    
_DMX= 0.6154468795152150    
_DMY=-0.7341826263592006    
_DMZ= 0.7585924422880197E-02
_DMX_SCF= 0.6154468795152150    
_DMY_SCF=-0.7341826263592006    
_DMZ_SCF= 0.7585924422880197E-02
_EHOMO=-0.4868765751456790    
_ELUMO=-0.3721539545058562E-01
_ENERGY= -204.3620399510522    
_ENUC=  58.85249957685418    
_EPS1= -20.65559215057950    
_GRADEXFAC=  9999.000000000000    
_GRADMETHOD=  1.000000000000000    
_NMRMETHOD=  0.000000000000000    
!GRID_FREEZE= -1.000000000000000    
_ITERATIONS=  23.00000000000000    
_LASTNELEC=  24.00000000000000    
_LASTSPIN=  0.000000000000000    
_LASTSYM=  1.000000000000000    
_MPP_PROG=  0.000000000000000    
_NPROC_MPP=  1.000000000000000    
_NPROC_MPPX=  1.000000000000000    
_NPROC_SMP=  16.00000000000000    
_NUMSTEP=  0.000000000000000    
_ORBITAL=  2100.200000000000    
_PI=  3.141592653589793    
_SEIG_MIN= 0.2424771728835969E-01
_SEWPROP=TRUE
_STATUS=  1.000000000000000    
_SYSTOT= 0.1700000000000000    
_VERSION=  2012001.000000000    
_WALLTOT=  2.910000000000000    
_DATE=24-Jan-19
_LASTORB=RHF
_MACHINE=Linux-4.9.0-8-amd64/nympha18.meta.zcu.cz(x86_64) (16 PROC) 64 bit serial version
_OUTPUT=/auto/brno2/home/masiz4am/git/UKRmol-in/tests/suite/C1_target_HF2/molpro.xml
_PGROUP=C1
_TIME=16:15:57
_LIBMOL=/afs/ics.muni.cz/software/molpro-2012.1/molprop_2012_1_Linux_x86_64_i8/lib/
!VIBCNT=  0.000000000000000    
!RGHFCNT=  0.000000000000000    
!SURFREC=  0.000000000000000    
!POLYREC=  0.000000000000000    
!DIPREC=  0.000000000000000    
!VSCFREC=  0.000000000000000    
!VCIREC=  0.000000000000000    
!PVCIREC=  0.000000000000000    
!VMP2REC=  0.000000000000000    
!VMCSCFREC=  0.000000000000000    
!VMRCIREC=  0.000000000000000    
!VIBINFO=  0.000000000000000    
!GAREC=  0.000000000000000    
!SCFORB=  21002.00000000000    
!NEWMOL= -1.000000000000000    
!NEWSYM= -1.000000000000000    
_SLFILES=slscratch
_NGSSTO=  9.000000000000000    
_SIN=SIN
_COS=COS
_TAN=TAN
_ACOS=ACOS
_ASIN=ASIN
_ATAN=ATAN
_COSH=COSH
_SINH=SINH
_TANH=TANH
_ABS=ABS
_MOD=MOD
_ERF=ERF
_REFC=REFC
_ERFC=ERFC
_HYPOT=HYPOT
_J0=J0
_J1=J1
_JN=JN
_GAMMA=GAMMA
_LGAMMA=LGAMMA
_Y0=Y0
_Y1=Y1
_YN=YN
_EXP=EXP
_LOG=LOG
_LOG10=LOG10
_SQRT=SQRT
_INT=INT
_NINT=NINT
_MAX=MAX
_MIN=MIN
_COSMO=  0.000000000000000    
_COSMOIT=  0.000000000000000    
_COSMOES=  0.000000000000000    
_COSMOEDS=  0.000000000000000    
_COSMOEC=  0.000000000000000    
_COSMOEDCORR=  0.000000000000000    
_FEPSI=  1.000000000000000    
_SL_IsMM=  0.000000000000000    
_SL_NSYM=  1.000000000000000    
_SL_System_BitSw=  0.000000000000000    
_SL_Unique_atoms=  0.000000000000000    
_SL_GRAD=  0.000000000000000    
_SL_MAXUPD_Hess=  5.000000000000000    
_SL_N_PRINT_COD=  5.000000000000000    
_SL_PRINT_CODES=  0.000000000000000    
_SL_BasType=  0.000000000000000    
_SL_Energy_Pred=  0.000000000000000    
_SL_New_Coords=  0.000000000000000    
_SL_Total_Nuclea=  0.000000000000000    
_SL_Highest_Mltp=  0.000000000000000    
_SL_Ref_Geom=  0.000000000000000    
_SL_Symmetry_ope=  1.000000000000000    
_SL_agrad=  0.000000000000000    
_SL_GrdMax=  0.000000000000000    
_SL_GrdNorm=  0.000000000000000    
_SL_GrdRMS=  0.000000000000000    
!LATTICE= -1.000000000000000    
!NEWLATTICE=  0.000000000000000    
!LATGRAD_VAR=FALSE
!SEW_LATTICE=  1.000000000000000    
!LOCAL=  0.000000000000000    
!SAVEDOM= -1.000000000000000    
!RESTDOM= -1.000000000000000    
!SAVEDOM_HF= -1.000000000000000    
!RESTDOM_HF= -1.000000000000000    
!HESSREC=  0.000000000000000    
!FREQREC=  0.000000000000000    
!NMODREC=  0.000000000000000    
!GTASKS=  0.000000000000000    
!HTASKS=  0.000000000000000    
!THRCHG= 0.1000000000000000    
!DEBUG= -1.000000000000000    
!CFIT_CPHF=  0.000000000000000    
!RDOMAUX_CPHF=  3.000000000000000    
!THRAO_CPHF= 0.1000000000000000E-09
!THRMO_CPHF= 0.1000000000000000E-08
!THROV_CPHF= 0.1000000000000000E-11
!THRSW_CPHF= 0.1000000000000000E-09
!THRPROD_CPHF= 0.1000000000000000E-08
!THRAOPR_CPHF= 0.1000000000000000E-11
!CFIT_SCFGRD=  0.000000000000000    
!RDOMAUX_SCFGRD=  5.000000000000000    
!THRAO_SCFGRD= 0.1000000000000000E-09
!THRMO_SCFGRD= 0.1000000000000000E-08
!THROV_SCFGRD= 0.1000000000000000E-11
!THRSW_SCFGRD= 0.1000000000000000E-09
!THRPROD_SCFGRD= 0.1000000000000000E-08
!THRAOPR_SCFGRD= 0.1000000000000000E-11
!LOCFIT_SCF=  0.000000000000000    
!LOCFIT_MP2= -1.000000000000000    
_RIDOM=  0.000000000000000    
!CC2_METHOD=  0.000000000000000    
_BASIS2006=FALSE
_SVDDEL= -1.000000000000000    
_SVDDELA= -1.000000000000000    
_SVDDELP= -1.000000000000000    
_SVDDELF= -1.000000000000000    
_SVDDELS= -1.000000000000000    
_SVDDEL_ABS= -1.000000000000000    
_SVDDELA_ABS= -1.000000000000000    
_SVDDELP_ABS= -1.000000000000000    
_SVDDELF_ABS= -1.000000000000000    
_SVDDELS_ABS= -1.000000000000000    
_MAXBASIS=  0.000000000000000    
!OPT_CONICAL=  0.000000000000000    
!CLEARSP_JGRID=  0.000000000000000    
_4EXT_NDISKS=  1.000000000000000    
!ZMP=  0.000000000000000    
_MAXIT_ZMP=  500.0000000000000    
_MAXDIS_ZMP=  100.0000000000000    
_ACCU_ZMP=  14.00000000000000    
_SHIFTA_ZMP= -100.0000000000000    
!EMBEDFLAG=  1.000000000000000    
!EMBED=FALSE
!EMBED_F12=FALSE
!EMBEDNUC=  0.000000000000000    
_EMBEDENERGY=  0.000000000000000    
_KSPACETIME=  0.000000000000000    
_RSPACETIME=  0.000000000000000    
!EMBED_DFC=FALSE
!NUM_VOIDS=  0.000000000000000    
_IBODY=  0.000000000000000    
_EMBE_TOTAL=  0.000000000000000    
_EMBE_HF=  0.000000000000000    
_EMBE_CORR=  0.000000000000000    
!EDFT=  0.000000000000000    
_IFASTLATGRAD=  0.000000000000000    
_SINDEX=  0.000000000000000    
GX1= 0.4610931400000000E-01
GY1=-0.2073029410000000    
GZ1=-0.8885491599999999    
GX2=-0.1965315030000000    
GY2=  2.519949606000000    
GZ2= 0.6211529320000000    
GX3=-0.5291232800000000E-01
GY3= -2.400518923000000    
GZ3=  1.048797924000000    
GX4=  1.211503331000000    
GY4= -2.567003783000000    
GZ4=  1.747051676000000    
[Atoms] Angs
N     1    7         0.0243999981       -0.1096999917       -0.4701999645
O     2    8        -0.1039999922        1.3334998993        0.3286999749
O     3    8        -0.0279999981       -1.2702999038        0.5549999582
H     4    1         0.6410999514       -1.3583998974        0.9244999299
[GTO]
  1 0
 s    8  1.00
  0.9046000000D+04  0.6996174134D-03
  0.1357000000D+04  0.5386054630D-02
  0.3093000000D+03  0.2739102119D-01
  0.8773000000D+02  0.1031505920D+00
  0.2856000000D+02  0.2785706633D+00
  0.1021000000D+02  0.4482948495D+00
  0.3838000000D+01  0.2780859284D+00
  0.7466000000D+00  0.1543156123D-01
 s    8  1.00
  0.9046000000D+04 -0.3049900960D-03
  0.1357000000D+04 -0.2408026379D-02
  0.3093000000D+03 -0.1194444873D-01
  0.8773000000D+02 -0.4892599291D-01
  0.2856000000D+02 -0.1344727247D+00
  0.1021000000D+02 -0.3151125777D+00
  0.3838000000D+01 -0.2428578325D+00
  0.7466000000D+00  0.1094382207D+01
 s    1  1.00
  0.2248000000D+00  0.1000000000D+01
 p    3  1.00
  0.1355000000D+02  0.5890567677D-01
  0.2917000000D+01  0.3204611067D+00
  0.7973000000D+00  0.7530420618D+00
 p    1  1.00
  0.2185000000D+00  0.1000000000D+01
 d    1  1.00
  0.8170000000D+00  0.1000000000D+01
  
  2 0
 s    8  1.00
  0.1172000000D+05  0.7096459465D-03
  0.1759000000D+04  0.5467272292D-02
  0.4008000000D+03  0.2782311861D-01
  0.1137000000D+03  0.1047477397D+00
  0.3703000000D+02  0.2829208464D+00
  0.1327000000D+02  0.4484952387D+00
  0.5025000000D+01  0.2708168852D+00
  0.1013000000D+01  0.1545029161D-01
 s    8  1.00
  0.1172000000D+05 -0.3144434117D-03
  0.1759000000D+04 -0.2482137681D-02
  0.4008000000D+03 -0.1231635538D-01
  0.1137000000D+03 -0.5053891734D-01
  0.3703000000D+02 -0.1393849033D+00
  0.1327000000D+02 -0.3250774948D+00
  0.5025000000D+01 -0.2298483076D+00
  0.1013000000D+01  0.1095379347D+01
 s    1  1.00
  0.3023000000D+00  0.1000000000D+01
 p    3  1.00
  0.1770000000D+02  0.6267916628D-01
  0.3854000000D+01  0.3335365659D+00
  0.1046000000D+01  0.7412396416D+00
 p    1  1.00
  0.2753000000D+00  0.1000000000D+01
 d    1  1.00
  0.1185000000D+01  0.1000000000D+01
  
  3 0
 s    8  1.00
  0.1172000000D+05  0.7096459465D-03
  0.1759000000D+04  0.5467272292D-02
  0.4008000000D+03  0.2782311861D-01
  0.1137000000D+03  0.1047477397D+00
  0.3703000000D+02  0.2829208464D+00
  0.1327000000D+02  0.4484952387D+00
  0.5025000000D+01  0.2708168852D+00
  0.1013000000D+01  0.1545029161D-01
 s    8  1.00
  0.1172000000D+05 -0.3144434117D-03
  0.1759000000D+04 -0.2482137681D-02
  0.4008000000D+03 -0.1231635538D-01
  0.1137000000D+03 -0.5053891734D-01
  0.3703000000D+02 -0.1393849033D+00
  0.1327000000D+02 -0.3250774948D+00
  0.5025000000D+01 -0.2298483076D+00
  0.1013000000D+01  0.1095379347D+01
 s    1  1.00
  0.3023000000D+00  0.1000000000D+01
 p    3  1.00
  0.1770000000D+02  0.6267916628D-01
  0.3854000000D+01  0.3335365659D+00
  0.1046000000D+01  0.7412396416D+00
 p    1  1.00
  0.2753000000D+00  0.1000000000D+01
 d    1  1.00
  0.1185000000D+01  0.1000000000D+01
  
  4 0
 s    3  1.00
  0.1301000000D+02  0.3349872639D-01
  0.1962000000D+01  0.2348008012D+00
  0.4446000000D+00  0.8136829579D+00
 s    1  1.00
  0.1220000000D+00  0.1000000000D+01
 p    1  1.00
  0.7270000000D+00  0.1000000000D+01
 
 
[MO]
 Sym=      1.1
 Ene=     -20.6556
 Spin= Alpha
 Occup=    2.000000
1 -0.000116021268814
2 -0.000215900592139
3 0.001313127701940
4 0.000006770368456
5 -0.000149368844187
6 0.000119129091072
7 -0.000017111257481
8 -0.000614668536897
9 0.000689141790175
10 -0.000081073389704
11 0.000041408061808
12 0.000039665327896
13 -0.000024975833723
14 0.000013131293189
15 -0.000102664876563
16 -0.012645066600886
17 0.000024092287876
18 -0.000089942144854
19 0.000000110323027
20 0.000042254449211
21 0.000009710742333
22 -0.000014899287167
23 0.000095774030497
24 -0.000044858060436
25 0.000006506037542
26 -0.000038805996765
27 0.000032299959224
28 0.000003842401452
29 -0.000003359676351
30 0.000000028204799
31 1.00132751948069
32 0.002172803018281
33 -0.003370694988333
34 0.002024756662858
35 0.000660523782868
36 0.000342391401837
37 -0.000129822685922
38 -0.001047786281070
39 0.000839031766731
40 0.000473165371464
41 -0.000380795618330
42 -0.000092369753135
43 -0.000161384831140
44 0.000438957426408
45 0.000274335383522
46 -0.001639172732762
47 0.000502627802605
48 0.001314900926951
49 -0.000080952600269
50 0.000642379071223
 Sym=      2.1
 Ene=     -20.6549
 Spin= Alpha
 Occup=    2.000000
1 -0.000186433059542
2 -0.000334625111077
3 0.001400927132240
4 0.000000948985695
5 0.000104654385789
6 0.000060769156143
7 -0.000089410743885
8 0.000874517956606
9 0.000581518540060
10 -0.000115340799259
11 0.000133110036615
12 -0.000017769237357
13 -0.000021320677661
14 -0.000017181560930
15 0.000150794992357
16 1.00056890241339
17 0.000132756679187
18 -0.003660214856591
19 0.000097993034893
20 -0.000872085491002
21 -0.000452340065303
22 -0.000109298442569
23 0.001139898249531
24 0.000602706792167
25 0.000136214425526
26 -0.000333165917134
27 0.000196951491607
28 0.000141424333216
29 0.000077588136103
30 -0.000429985151656
31 0.012688054339916
32 0.000047407105420
33 -0.000224956215467
34 0.000031121404767
35 -0.000032565849754
36 0.000018457878298
37 -0.000016594237578
38 -0.000084794327811
39 -0.000072145676936
40 0.000018255263336
41 -0.000046528397253
42 0.000028273133917
43 0.000007633404641
44 -0.000002849477655
45 0.000024579780689
46 -0.000033596589622
47 0.000133317828137
48 -0.000015334477481
49 -0.000028634908466
50 0.000022017520733
 Sym=      3.1
 Ene=     -15.8554
 Spin= Alpha
 Occup=    2.000000
1 1.00064439934541
2 -0.000242991717968
3 -0.004262174132674
4 0.000004394533533
5 -0.000295514619134
6 0.001638651619234
7 0.000058659685320
8 0.000166085323053
9 -0.001581192550371
10 -0.000244769921512
11 0.000014300991512
12 0.000230468930000
13 0.000034316505570
14 0.000130092264349
15 0.000187371299566
16 -0.000165326488797
17 -0.000207703819648
18 0.000991458691614
19 0.000011213725239
20 -0.000118041121572
21 -0.000099910751623
22 0.000031786823212
23 -0.000576596945790
24 -0.000089702006298
25 0.000021878240070
26 0.000031756419930
27 -0.000053634660000
28 0.000002221518971
29 0.000003966217096
30 -0.000028964922599
31 -0.000099768108112
32 -0.000056823344191
33 0.000640809497167
34 -0.000017530677575
35 0.000125381753324
36 -0.000143754360310
37 -0.000203076335831
38 0.000568617714429
39 -0.000331240813865
40 0.000014307442304
41 0.000019022262570
42 -0.000033329704875
43 -0.000011509757823
44 -0.000009682319936
45 0.000087390865570
46 0.000098569688816
47 0.000589465516476
48 -0.000104817556047
49 0.000083297337092
50 -0.000170237760522
 Sym=      4.1
 Ene=      -1.4887
 Spin= Alpha
 Occup=    2.000000
1 -0.000816020741868
2 0.14285079030962
3 0.11567798154549
4 0.003438922595208
5 -0.047461513779965
6 0.057163778333113
7 0.010545391825207
8 -0.013979894384132
9 0.024599339639908
10 -0.011385477887147
11 0.006063276852805
12 0.005322201034342
13 -0.003057019248852
14 0.002587067379999
15 -0.014516155194142
16 -0.000825593292203
17 0.045855503867693
18 0.044230342037404
19 0.000584593731515
20 -0.013701839476390
21 -0.004007453562206
22 -0.000916559052562
23 -0.004908108938377
24 -0.002163985277444
25 -0.001284828553447
26 0.002007795394670
27 -0.000722966841223
28 -0.000147973017109
29 -0.000034230979246
30 0.001729117439523
31 -0.012519549231359
32 0.41643859031411
33 0.32993299768852
34 0.10206066838297
35 0.024796182925358
36 0.023548034277364
37 -0.018367271299450
38 0.018931121295956
39 -0.026643394249515
40 0.005261425667934
41 -0.003347633425037
42 -0.001913792242897
43 -0.000125784782205
44 0.007785771566445
45 -0.007904023005060
46 0.27373295510525
47 -0.004190957509441
48 -0.040837704766493
49 0.007133693867235
50 -0.024352394262140
 Sym=      5.1
 Ene=      -1.2854
 Spin= Alpha
 Occup=    2.000000
1 0.002460480660221
2 0.20002789041769
3 0.18233844179658
4 -0.001897825046026
5 0.083191916596578
6 0.039368140887618
7 -0.002449455548848
8 0.031942247525469
9 0.019422893912526
10 -0.007074812139579
11 0.008022260132406
12 -0.000947447992827
13 -0.000255065815447
14 -0.001318720010019
15 0.012678822821263
16 -0.003415189607900
17 0.42140588622845
18 0.46227908280582
19 -0.000055977580604
20 -0.034452844625957
21 -0.019426765722829
22 0.001302541930027
23 -0.020632377527375
24 -0.011666928512536
25 -0.003831801101497
26 0.005076133492614
27 -0.001244332391117
28 -0.000484119642497
29 -0.000252301821426
30 0.005854174817250
31 0.002143052219766
32 -0.10139041109689
33 -0.082023305554277
34 -0.042765468687460
35 0.034278389380638
36 -0.039119242956628
37 0.004646548523989
38 0.009190071062223
39 -0.003029348620313
40 -0.005154778098722
41 0.004763242757289
42 0.000391535341432
43 0.001308923375817
44 -0.003762283262729
45 -0.002754657989409
46 -0.098912058372589
47 -0.003617858317017
48 0.013425496863614
49 -0.000853525571121
50 0.007619584814517
 Sym=      6.1
 Ene=      -1.0543
 Spin= Alpha
 Occup=    2.000000
1 -0.013473121757559
2 -0.42101746915671
3 -0.41140949625778
4 0.002685831412089
5 0.072018885602344
6 0.010857195659235
7 0.001497854049177
8 0.034148299139568
9 0.002789725557007
10 0.007983678569799
11 -0.005809472654670
12 -0.002174205915129
13 -0.002348401379539
14 0.001291758099706
15 0.009858442424238
16 0.000724717933689
17 0.23957245582331
18 0.29889175872259
19 -0.000202220358948
20 0.060591241530903
21 0.030833941286367
22 -0.000808628509326
23 0.025723688890680
24 0.015456374460866
25 0.002826653311513
26 -0.004617219528804
27 0.001790566217292
28 0.001193179427897
29 0.000738450296790
30 -0.005452699144150
31 -0.000837178979391
32 0.081466146193975
33 0.032022111493065
34 0.10941723792569
35 -0.11471247086459
36 0.16082653374064
37 0.004953745137054
38 -0.048662024919160
39 0.052299294781272
40 0.012911493698333
41 -0.009540457216105
42 -0.003371036482227
43 -0.003691017394973
44 0.009175449325697
45 0.012361957668816
46 0.19950973737100
47 0.020051718205545
48 -0.024783720713426
49 0.000698416811913
50 -0.011224408044034
 Sym=      7.1
 Ene=      -0.7677
 Spin= Alpha
 Occup=    2.000000
1 0.007208023723567
2 0.16269112047833
3 0.20532140740823
4 0.057866373284341
5 0.17061140587992
6 -0.10990277302339
7 0.049718892050174
8 0.086285360296269
9 -0.051449122792496
10 0.006061476063459
11 -0.003632502645440
12 -0.002428973418020
13 -0.009020283659358
14 0.010718133319685
15 0.020356358372907
16 -0.001016598988218
17 -0.072995585744694
18 -0.11214212078617
19 0.020659670000836
20 -0.054297234849400
21 -0.074816895514421
22 0.013079042853643
23 -0.031133611258110
24 -0.043298425101584
25 -0.003120777386890
26 0.003203554740444
27 -0.000082777353554
28 -0.002096811054474
29 -0.001165437594816
30 0.006861220942757
31 0.000074385917701
32 -0.14640315293610
33 -0.34849891931441
34 0.42655411176890
35 -0.025743377725207
36 0.22673155946816
37 0.19685703833192
38 -0.009842743189722
39 0.10115610573843
40 0.020754476392952
41 -0.012869245178847
42 -0.007885231214104
43 0.004027539506128
44 0.011335237066086
45 0.006745341390879
46 0.33506231951001
47 0.018591669852813
48 -0.023410303596406
49 0.008679908149228
50 -0.017336329740798
 Sym=      8.1
 Ene=      -0.6449
 Spin= Alpha
 Occup=    2.000000
1 0.006276791099000
2 0.060614450850373
3 0.074596789833601
4 -0.007722530843491
5 -0.096579860871064
6 -0.34567330877016
7 -0.003600419020784
8 -0.066856762278729
9 -0.22054522025060
10 0.012541789605380
11 0.009029281155283
12 -0.021571070760664
13 -0.000972854907171
14 0.001232414011455
15 0.002498840388149
16 0.000305076319138
17 0.053769823563132
18 0.10256186663465
19 0.004692375467415
20 0.16843694368853
21 -0.089726419448134
22 0.003063890547711
23 0.10491287575483
24 -0.065587237075999
25 0.004228334000839
26 -0.009482817020922
27 0.005254483020083
28 0.001341146084990
29 0.000242459717151
30 -0.002649118193521
31 0.000854738590609
32 0.028531250812729
33 0.043108089962036
34 0.056360804529718
35 -0.40052612564082
36 -0.24082947763358
37 0.034008051729013
38 -0.27089242795569
39 -0.17127916017187
40 0.007001104658181
41 -0.012826202802857
42 0.005825098144676
43 -0.010019204260619
44 -0.006208063869913
45 0.000812023242450
46 0.006064407153856
47 0.017616018091420
48 0.002934892151343
49 -0.022805379692066
50 -0.015224898020206
 Sym=      9.1
 Ene=      -0.6215
 Spin= Alpha
 Occup=    2.000000
1 -0.003682292775675
2 -0.059764820529501
3 -0.095908849202301
4 0.095559674303440
5 -0.29861626386712
6 0.13455339517320
7 0.081564180834681
8 -0.16657174680068
9 0.077831016725967
10 -0.007957547467130
11 0.001599046433337
12 0.006358501033793
13 -0.005963153968745
14 0.011519901269692
15 -0.029156091394981
16 0.002202643941750
17 0.065950775331208
18 0.10718294982531
19 0.071791432188839
20 0.062976957797896
21 0.19666093038177
22 0.049752983902837
23 0.044765144948202
24 0.12730524704785
25 0.005236292032271
26 -0.004127743988911
27 -0.001108548043360
28 -0.001240169738829
29 -0.000046239486359
30 -0.010078576484391
31 -0.004307925965211
32 -0.093889402958463
33 -0.15109378403570
34 0.32002637935545
35 0.14481814579159
36 -0.29058896398438
37 0.23211837615580
38 0.10647009571826
39 -0.20299334644820
40 0.004750196382110
41 -0.000864227243380
42 -0.003885969138730
43 0.010992297764673
44 -0.008928624250881
45 -0.013550927108838
46 0.035357953872764
47 -0.012793378808300
48 0.010999399698403
49 0.007268124421609
50 -0.020178624886568
 Sym=     10.1
 Ene=      -0.5170
 Spin= Alpha
 Occup=    2.000000
1 -0.004595489417800
2 -0.035139555077056
3 -0.038014376064650
4 0.051658691787219
5 0.27752264584422
6 0.27382582488075
7 0.039259839924761
8 0.15578420846597
9 0.19384284811767
10 -0.008858654339565
11 0.010035057342957
12 -0.001176403003392
13 -0.002390569543483
14 0.002119954571283
15 0.022970494879840
16 -0.002059443687403
17 -0.065476981586536
18 -0.12685621090034
19 0.005881268622380
20 -0.32677683209746
21 0.10598460780710
22 0.006412451938250
23 -0.23176220840442
24 0.072343041715408
25 -0.007506582203605
26 0.013735168590286
27 -0.006228586386681
28 -0.003323346065001
29 -0.001370898366094
30 0.010430136171445
31 0.001069815137176
32 0.019023563741022
33 0.032579748880504
34 0.050296261437756
35 -0.32544638200899
36 -0.27070002401642
37 0.046212682020717
38 -0.25421436340816
39 -0.19469955181297
40 0.003853522645367
41 0.000214947222014
42 -0.004068469867381
43 -0.006870141078331
44 -0.008461286136285
45 0.000146173708283
46 -0.034430404181044
47 0.003717227013261
48 0.007318080021573
49 -0.018209309032217
50 -0.016455662516136
 Sym=     11.1
 Ene=      -0.5037
 Spin= Alpha
 Occup=    2.000000
1 0.005234536421049
2 0.073153310750643
3 0.11706334154095
4 -0.081990398764314
5 -0.083743810850985
6 -0.25388131434656
7 -0.071694316140449
8 -0.076870990704098
9 -0.15318996352739
10 0.011770893764334
11 -0.016009875872713
12 0.004238982108379
13 -0.001056195694771
14 -0.005948009127838
15 0.010313794750814
16 -0.000197236967807
17 0.021906639188154
18 0.054632877636820
19 -0.10715269793428
20 -0.19296236477591
21 0.54006150411347
22 -0.082792158224948
23 -0.14728616982963
24 0.39278575286525
25 0.002566068234673
26 0.000604436418628
27 -0.003170504653301
28 0.003798947436085
29 0.002647320017916
30 -0.007875653230600
31 0.002306165761532
32 -0.011789316600853
33 -0.063666066419479
34 -0.038515595315309
35 -0.067280720413103
36 0.14784530365976
37 -0.048471565089367
38 -0.042669046878067
39 0.11588241204701
40 0.000719505948333
41 -0.004109602223659
42 0.003390096275325
43 -0.004254018959244
44 0.005732089530748
45 0.005463360347100
46 0.044502295164832
47 0.032599120346039
48 -0.008428952036282
49 -0.002841645497809
50 0.004433189452669
 Sym=     12.1
 Ene=      -0.4869
 Spin= Alpha
 Occup=    2.000000
1 0.001417451938883
2 0.030406663221364
3 0.058852853857326
4 0.18563263952576
5 0.049218513127889
6 -0.055575286413132
7 0.17161085973820
8 0.033734730167023
9 -0.031110381820742
10 0.002740540215318
11 -0.003762029602807
12 0.001021489387489
13 0.019892122614890
14 0.011922085587724
15 0.006157413586993
16 -0.000302980637739
17 -0.008246058792097
18 -0.013858742184056
19 0.54995289657048
20 0.042975000445861
21 0.12898578274917
22 0.42923145420059
23 0.032254447274596
24 0.097428569109803
25 0.002203570463285
26 -0.001509287812713
27 -0.000694282650572
28 -0.012581627025169
29 -0.006681995361043
30 -0.001638172157476
31 0.001274686029121
32 0.025844475914287
33 0.044978626050338
34 -0.12943281034518
35 -0.036335362166052
36 0.086550586764896
37 -0.10211081676308
38 -0.026736305961815
39 0.067160116296180
40 -0.003924794549813
41 0.001506087759857
42 0.002418706789956
43 0.000080069437023
44 -0.000993250088642
45 0.003613281976182
46 -0.039990124594181
47 0.020462280477318
48 -0.004300119529760
49 -0.000493474987817
50 0.006836300006969
 Sym=     13.1
 Ene=      -0.0372
 Spin= Alpha
 Occup=    0.000000
1 -0.002699967656519
2 0.004287475910034
3 0.045780045727319
4 0.53615258549173
5 -0.000921694060216
6 -0.012848049148169
7 0.53662186840845
8 -0.008521635315753
9 -0.007882390148090
10 0.005480590924135
11 -0.004743266143999
12 -0.000737324780136
13 -0.008377908844102
14 0.007338822047979
15 -0.001047274332944
16 -0.000119751462504
17 0.004783843252579
18 0.016988887370596
19 -0.29507969952674
20 0.022736982983058
21 0.012777036209801
22 -0.27179987849728
23 0.021635917464884
24 0.012403766449177
25 0.002107385887473
26 -0.002395252788907
27 0.000287866901434
28 -0.005706466704135
29 -0.003262736259579
30 -0.002281260965023
31 -0.000750940211682
32 0.016505020107732
33 0.048521283525805
34 -0.13186319762146
35 -0.020010861442758
36 0.059134880553078
37 -0.10607736250048
38 -0.023439190483610
39 0.066382010883681
40 -0.005266697034640
41 0.002270214664874
42 0.002996482369766
43 0.008238310275686
44 -0.010181692870639
45 0.001493289645775
46 -0.089021610591687
47 0.033190549508796
48 -0.003954384076287
49 0.004386663528180
50 0.001206536714237
 Sym=     14.1
 Ene=       0.1471
 Spin= Alpha
 Occup=    0.000000
1 0.018380421932808
2 0.21641411179076
3 0.41833462465147
4 -0.056256174786291
5 -0.061986438426189
6 0.40071566545328
7 -0.095719978430301
8 -0.059414015268557
9 0.46967619245518
10 0.016895235478985
11 -0.022121348051779
12 0.005226112572794
13 0.001696042899583
14 0.000945818861774
15 0.000858271732366
16 0.002846212513361
17 -0.057317453561958
18 -0.17762414129061
19 -0.031391954513937
20 0.32547396395808
21 0.081048256255736
22 -0.042683995524284
23 0.40102071304487
24 0.11547443602841
25 -0.000577159705122
26 0.006032037848175
27 -0.005454878143052
28 0.000440157112973
29 0.001285941621376
30 -0.000870919756358
31 0.017770767146241
32 -0.11517725591287
33 -0.64445089950201
34 -0.061328222551280
35 -0.26392622355083
36 0.14681214654082
37 -0.11883226402801
38 -0.33561554627795
39 0.16678779362267
40 -0.010650794726023
41 0.010323300961303
42 0.000327493764720
43 -0.006578457730767
44 0.000543232963029
45 -0.011691205451991
46 0.057755623235541
47 0.50172167958731
48 -0.019446517209824
49 -0.022601842131331
50 0.004853983517014
 Sym=     15.1
 Ene=       0.1755
 Spin= Alpha
 Occup=    0.000000
1 0.001752461712117
2 0.078882901389949
3 0.26164002424171
4 -0.007854907114710
5 0.40107157479406
6 0.033721287483909
7 -0.017209053305869
8 0.46967264805170
9 0.097666004527609
10 0.004282371172278
11 -0.012237603207576
12 0.007955232035298
13 0.002483690605798
14 0.000476713412458
15 -0.020927178805732
16 0.004261731095339
17 -0.066925203413406
18 -0.24197145394211
19 -0.045514818945520
20 0.30775088661325
21 0.22878224511272
22 -0.065284340762385
23 0.41423394166830
24 0.27522521346119
25 -0.002584733311501
26 0.000327165231935
27 0.002257568079566
28 0.000104452136652
29 -0.000964124416911
30 0.006293189356527
31 -0.018458704109419
32 0.085614282777562
33 0.66174652483831
34 0.094503951904813
35 0.040860933990280
36 -0.080643018781896
37 0.18722732837663
38 0.025099195826656
39 -0.034637113836166
40 0.011526201909710
41 -0.000687705382805
42 -0.010838496526905
43 -0.000657054486598
44 0.006385979714565
45 0.002857068832040
46 -0.043568613821284
47 -0.86602491719706
48 0.028760358318741
49 0.005852712269654
50 -0.001741309207437
 Sym=     16.1
 Ene=       0.2334
 Spin= Alpha
 Occup=    0.000000
1 -0.002557111100603
2 -0.092740154672369
3 -0.37447609348977
4 -0.038176912937700
5 0.33220684486193
6 -0.14612261403798
7 -0.034178922141576
8 0.54176490575935
9 -0.30937722574674
10 0.004395347103262
11 -0.005307950124971
12 0.000912603021709
13 0.001081966696080
14 0.000644213849084
15 -0.012131099223730
16 -0.004236568973960
17 -0.055128785093651
18 -0.12195169116233
19 -0.028043437726303
20 0.10291241631801
21 0.085829842697706
22 -0.033129521374587
23 0.14358357978356
24 0.12937103364959
25 -0.001494093577751
26 -0.002881683826459
27 0.004375777404210
28 -0.000104007158028
29 0.000353515486152
30 0.001449510494859
31 0.018127972898201
32 0.023425531709243
33 -0.38829572166970
34 -0.086334345685880
35 0.21172623995643
36 -0.25686876333187
37 -0.20850839317522
38 0.39519975837480
39 -0.47836298163782
40 -0.003490938057056
41 0.008415605039776
42 -0.004924666982720
43 0.007121939525341
44 -0.016504912422973
45 0.013523362990770
46 0.005315846976438
47 1.33960678237627
48 -0.022080987768467
49 0.014041000621571