[Molden Format]
[Molpro variables]
_NUMVAR=  808.0000000000000    
_AVOGAD= 0.6022136736000000E+24
_BOLTZ= 0.1380658000000000E-22
_CLIGHT=  29979245800.00000    
_EV2006= 0.3674930886769165E-01
_EV= 0.3674932534394180E-01
_ENULL= 0.8854187817000000E-11
_KJOULE= 0.3808798324128737E-03
_KJOULE/MOL= 0.3808798324128737E-03
_CM= 0.4556335267302901E-05
_CM-1= 0.4556335267302901E-05
_DEB2SI= 0.3335641000000000E-29
_AMU2AU=  1822.888390000000    
_KCAL= 0.1593601117815568E-02
_KCAL/MOL= 0.1593601117815568E-02
_KELVIN2006= 0.3166828861084835E-05
_KELVIN= 0.3166814820820034E-05
_JOULE= 0.4359748200000000E-17
_HERTZ2006= 0.1519829850815779E-15
_HERTZ= 0.1519829846011223E-15
_HZ2006= 0.1519829850815779E-15
_HZ= 0.1519829846011223E-15
_JPCAL=  4.184000000000000    
_PLANCK= 0.6626075540000000E-33
_TOA2006= 0.5291772490000000    
_TOA= 0.5291772090000000    
_TOANG2006= 0.5291772490000000    
_TOANG= 0.5291772090000000    
_TORAD= 0.1745329251994330E-01
_TOCM=  219474.6306700000    
_TODEBYE=  2.541580000000000    
_TOEV2006=  27.21139610000000    
_TOE= 0.4803242000000000E-09
_TOEV=  27.21138390000000    
_TOHERTZ2006=  6579683899900000.    
_TOHERTZ=  6579683920700000.    
_TOHZ2006=  6579683899900000.    
_TOHZ=  6579683920700000.    
_TOK2006=  315773.3000000000    
_TOK=  315774.7000000000    
_TOKCAL=  627.5096000000000    
_TOKELVIN2006=  315773.3000000000    
_TOKELVIN=  315774.7000000000    
_TOKJ=  2625.500000000000    
_TOKJOULE=  2625.500000000000    
_TOKG= 0.1660565586000000E-26
_ANG2006=  1.889725988578923    
_ANG=  1.889726131421507    
_ANGSTROM2006=  1.889725988578923    
_ANGSTROM=  1.889726131421507    
_RPAREF=  0.000000000000000    
_RPADISS=  0.000000000000000    
_IGNORE_UNDEF=  2.000000000000000    
_STRICTCHECK=  0.000000000000000    
_SEW_ONEEL=  0.000000000000000    
_CPPDONE=FALSE
_DKROLL_DONE=  0.000000000000000    
_FOCKDONE=TRUE
_GRADONE=FALSE
_HESSDONE=FALSE
_INTDONE=TRUE
_SCFDONE=TRUE
_MODUL_BLOCK=FALSE
_MODUL_CUDA=FALSE
_MODUL_SLATER=FALSE
_MODUL_MRCC=FALSE
_MODUL_NBO6=FALSE
_MODUL_NECI=TRUE
_MODUL_AIMS=TRUE
_MRCC_EXEC=
_FITC_AO_SAVED=FALSE
_FITC_MO_SAVED=FALSE
_SHARED_FS=TRUE
_LSTYP=SEWARD
_INTYP=INTS
_GEOMTYP=ZMAT
_GRADTYP=ALASKA
_DIRECT=FALSE
_DKHO= -1.000000000000000    
_SYNCM=  0.000000000000000    
_BASIS=USERDEF
_ZORIENT=  1.000000000000000    
_NELEC=  42.00000000000000    
!SPIN=  0.000000000000000    
_QSDSTEP=  0.000000000000000    
_QSDIRC=  0.000000000000000    
_PROGRAM=HF-SCF
_CPUSTEP= 0.1800000000000002    
_SYSSTEP= 0.1999999999999999E-01
_WALLSTEP= 0.5200000000000000    
!DFSCF=  0.000000000000000    
!SCSGRD=  0.000000000000000    
_BASINP=  610.0000000000000    
_CPUTOT=  2.180000000000000    
_CPUSORT= 0.3200000000000001    
_SYSSORT= 0.1500000000000000    
_WALLSORT= 0.5300000011920929    
_DFTEXFAC=  1.000000000000000    
_DMX=  0.000000000000000    
_DMY=  0.000000000000000    
_DMZ=  0.000000000000000    
_DMX_SCF=  0.000000000000000    
_DMY_SCF=  0.000000000000000    
_DMZ_SCF=  0.000000000000000    
_EHOMO=-0.3326993314662972    
_ELUMO= 0.1358173769115326    
_ENERGY= -230.7214163473253    
_ENUC=  202.7384749397557    
_EPS1= -11.24123780418046    
_EPS2=-0.4968401753030798    
_EPS3= -11.24069718788010    
_EPS4=-0.3326993314662972    
_EPS5= -11.24070059303043    
_EPS6=-0.3327022478839744    
_EPS7= -11.23953363750639    
_EPS8= 0.1358173769115326    
_GRADEXFAC=  9999.000000000000    
_GRADMETHOD=  1.000000000000000    
_NMRMETHOD=  0.000000000000000    
!GRID_FREEZE= -1.000000000000000    
_ITERATIONS=  8.000000000000000    
_LASTNELEC=  42.00000000000000    
_LASTSPIN=  0.000000000000000    
_LASTSYM=  1.000000000000000    
_MPP_PROG=  0.000000000000000    
_NPROC_MPP=  1.000000000000000    
_NPROC_MPPX=  1.000000000000000    
_NPROC_SMP=  16.00000000000000    
_NUMSTEP=  0.000000000000000    
_ORBITAL=  2100.200000000000    
_PI=  3.141592653589793    
_SEIG_MIN= 0.3750168419059645E-03
_SEWPROP=TRUE
_STATUS=  1.000000000000000    
_SYSTOT= 0.2100000000000000    
_VERSION=  2012001.000000000    
_WALLTOT=  4.080000000000000    
_DATE=24-Jan-19
_LASTORB=RHF
_MACHINE=Linux-4.9.0-8-amd64/nympha18.meta.zcu.cz(x86_64) (16 PROC) 64 bit serial version
_OUTPUT=/auto/brno2/home/masiz4am/git/UKRmol-in/tests/suite/D2h_scattering_SEP/molpro.xml
_PGROUP=D2h
_TIME=16:41:10
_LIBMOL=/afs/ics.muni.cz/software/molpro-2012.1/molprop_2012_1_Linux_x86_64_i8/lib/
!VIBCNT=  0.000000000000000    
!RGHFCNT=  0.000000000000000    
!SURFREC=  0.000000000000000    
!POLYREC=  0.000000000000000    
!DIPREC=  0.000000000000000    
!VSCFREC=  0.000000000000000    
!VCIREC=  0.000000000000000    
!PVCIREC=  0.000000000000000    
!VMP2REC=  0.000000000000000    
!VMCSCFREC=  0.000000000000000    
!VMRCIREC=  0.000000000000000    
!VIBINFO=  0.000000000000000    
!GAREC=  0.000000000000000    
!SCFORB=  21002.00000000000    
!NEWMOL= -1.000000000000000    
!NEWSYM= -1.000000000000000    
_SLFILES=slscratch
_NGSSTO=  9.000000000000000    
_SIN=SIN
_COS=COS
_TAN=TAN
_ACOS=ACOS
_ASIN=ASIN
_ATAN=ATAN
_COSH=COSH
_SINH=SINH
_TANH=TANH
_ABS=ABS
_MOD=MOD
_ERF=ERF
_REFC=REFC
_ERFC=ERFC
_HYPOT=HYPOT
_J0=J0
_J1=J1
_JN=JN
_GAMMA=GAMMA
_LGAMMA=LGAMMA
_Y0=Y0
_Y1=Y1
_YN=YN
_EXP=EXP
_LOG=LOG
_LOG10=LOG10
_SQRT=SQRT
_INT=INT
_NINT=NINT
_MAX=MAX
_MIN=MIN
_COSMO=  0.000000000000000    
_COSMOIT=  0.000000000000000    
_COSMOES=  0.000000000000000    
_COSMOEDS=  0.000000000000000    
_COSMOEC=  0.000000000000000    
_COSMOEDCORR=  0.000000000000000    
_FEPSI=  1.000000000000000    
_SL_IsMM=  0.000000000000000    
_SL_NSYM=  8.000000000000000    
_SL_System_BitSw=  0.000000000000000    
_SL_Unique_atoms=  0.000000000000000    
_SL_GRAD=  0.000000000000000    
_SL_MAXUPD_Hess=  5.000000000000000    
_SL_N_PRINT_COD=  5.000000000000000    
_SL_PRINT_CODES=  0.000000000000000    
_SL_BasType=  0.000000000000000    
_SL_Energy_Pred=  0.000000000000000    
_SL_New_Coords=  0.000000000000000    
_SL_Total_Nuclea=  0.000000000000000    
_SL_Highest_Mltp=  0.000000000000000    
_SL_Ref_Geom=  0.000000000000000    
_SL_Symmetry_ope=  1.000000000000000    
_SL_agrad=  0.000000000000000    
_SL_GrdMax=  0.000000000000000    
_SL_GrdNorm=  0.000000000000000    
_SL_GrdRMS=  0.000000000000000    
!LATTICE= -1.000000000000000    
!NEWLATTICE=  0.000000000000000    
!LATGRAD_VAR=FALSE
!SEW_LATTICE=  1.000000000000000    
!LOCAL=  0.000000000000000    
!SAVEDOM= -1.000000000000000    
!RESTDOM= -1.000000000000000    
!SAVEDOM_HF= -1.000000000000000    
!RESTDOM_HF= -1.000000000000000    
!HESSREC=  0.000000000000000    
!FREQREC=  0.000000000000000    
!NMODREC=  0.000000000000000    
!GTASKS=  0.000000000000000    
!HTASKS=  0.000000000000000    
!THRCHG= 0.1000000000000000    
!DEBUG= -1.000000000000000    
!CFIT_CPHF=  0.000000000000000    
!RDOMAUX_CPHF=  3.000000000000000    
!THRAO_CPHF= 0.1000000000000000E-09
!THRMO_CPHF= 0.1000000000000000E-08
!THROV_CPHF= 0.1000000000000000E-11
!THRSW_CPHF= 0.1000000000000000E-09
!THRPROD_CPHF= 0.1000000000000000E-08
!THRAOPR_CPHF= 0.1000000000000000E-11
!CFIT_SCFGRD=  0.000000000000000    
!RDOMAUX_SCFGRD=  5.000000000000000    
!THRAO_SCFGRD= 0.1000000000000000E-09
!THRMO_SCFGRD= 0.1000000000000000E-08
!THROV_SCFGRD= 0.1000000000000000E-11
!THRSW_SCFGRD= 0.1000000000000000E-09
!THRPROD_SCFGRD= 0.1000000000000000E-08
!THRAOPR_SCFGRD= 0.1000000000000000E-11
!LOCFIT_SCF=  0.000000000000000    
!LOCFIT_MP2= -1.000000000000000    
_RIDOM=  0.000000000000000    
!CC2_METHOD=  0.000000000000000    
_BASIS2006=FALSE
_SVDDEL= -1.000000000000000    
_SVDDELA= -1.000000000000000    
_SVDDELP= -1.000000000000000    
_SVDDELF= -1.000000000000000    
_SVDDELS= -1.000000000000000    
_SVDDEL_ABS= -1.000000000000000    
_SVDDELA_ABS= -1.000000000000000    
_SVDDELP_ABS= -1.000000000000000    
_SVDDELF_ABS= -1.000000000000000    
_SVDDELS_ABS= -1.000000000000000    
_MAXBASIS=  0.000000000000000    
!OPT_CONICAL=  0.000000000000000    
!CLEARSP_JGRID=  0.000000000000000    
_4EXT_NDISKS=  1.000000000000000    
!ZMP=  0.000000000000000    
_MAXIT_ZMP=  500.0000000000000    
_MAXDIS_ZMP=  100.0000000000000    
_ACCU_ZMP=  14.00000000000000    
_SHIFTA_ZMP= -100.0000000000000    
!EMBEDFLAG=  1.000000000000000    
!EMBED=FALSE
!EMBED_F12=FALSE
!EMBEDNUC=  0.000000000000000    
_EMBEDENERGY=  0.000000000000000    
_KSPACETIME=  0.000000000000000    
_RSPACETIME=  0.000000000000000    
!EMBED_DFC=FALSE
!NUM_VOIDS=  0.000000000000000    
_IBODY=  0.000000000000000    
_EMBE_TOTAL=  0.000000000000000    
_EMBE_HF=  0.000000000000000    
_EMBE_CORR=  0.000000000000000    
!EDFT=  0.000000000000000    
_IFASTLATGRAD=  0.000000000000000    
_SINDEX=  0.000000000000000    
GX1=  0.000000000000000    
GY1=  0.000000000000000    
GZ1=  2.645994329000000    
GX2=  0.000000000000000    
GY2= -2.291481734000000    
GZ2=  1.322997165000000    
GX3=  0.000000000000000    
GY3=  0.000000000000000    
GZ3=  4.700693397000000    
GX4=  0.000000000000000    
GY4= -4.070847725000000    
GZ4=  2.350252212000000    
GX5=  0.000000000000000    
GY5= -2.291481734000000    
GZ5= -1.322997165000000    
GX6=  0.000000000000000    
GY6=  0.000000000000000    
GZ6= -2.645994329000000    
GX7=  0.000000000000000    
GY7= -4.070847725000000    
GZ7= -2.350252212000000    
GX8=  0.000000000000000    
GY8=  0.000000000000000    
GZ8= -4.700693397000000    
GX9=  0.000000000000000    
GY9=  2.291481734000000    
GZ9= -1.322997165000000    
GX10=  0.000000000000000    
GY10=  2.291481734000000    
GZ10=  1.322997165000000    
GX11=  0.000000000000000    
GY11=  4.070847725000000    
GZ11= -2.350252212000000    
GX12=  0.000000000000000    
GY12=  4.070847725000000    
GZ12=  2.350252212000000    
[Atoms] Angs
C     1    6         0.0000000000        0.0000000000        1.4001998941
C     2    6         0.0000000000       -1.2125999085        0.7000999473
H     3    1         0.0000000000        0.0000000000        2.4874998122
H     4    1         0.0000000000       -2.1541998374        1.2436999060
C     5    6         0.0000000000       -1.2125999085       -0.7000999473
C     6    6         0.0000000000        0.0000000000       -1.4001998941
H     7    1         0.0000000000       -2.1541998374       -1.2436999060
H     8    1         0.0000000000        0.0000000000       -2.4874998122
C     9    6         0.0000000000        1.2125999085       -0.7000999473
C    10    6         0.0000000000        1.2125999085        0.7000999473
H    11    1         0.0000000000        2.1541998374       -1.2436999060
H    12    1         0.0000000000        2.1541998374        1.2436999060
[GTO]
  1 0
 s    8  1.00
  0.6665000000D+04  0.6915839628D-03
  0.1000000000D+04  0.5325796153D-02
  0.2280000000D+03  0.2706072104D-01
  0.6471000000D+02  0.1016568461D+00
  0.2106000000D+02  0.2745748236D+00
  0.7495000000D+01  0.4482943189D+00
  0.2797000000D+01  0.2849026107D+00
  0.5215000000D+00  0.1519485921D-01
 s    8  1.00
  0.6665000000D+04 -0.2932696527D-03
  0.1000000000D+04 -0.2318035474D-02
  0.2280000000D+03 -0.1149978604D-01
  0.6471000000D+02 -0.4682672701D-01
  0.2106000000D+02 -0.1284661688D+00
  0.7495000000D+01 -0.3012662725D+00
  0.2797000000D+01 -0.2556307023D+00
  0.5215000000D+00  0.1093793361D+01
 s    1  1.00
  0.1596000000D+00  0.1000000000D+01
 p    3  1.00
  0.9439000000D+01  0.5697925159D-01
  0.2002000000D+01  0.3132072115D+00
  0.5456000000D+00  0.7603767417D+00
 p    1  1.00
  0.1517000000D+00  0.1000000000D+01
 d    1  1.00
  0.5500000000D+00  0.1000000000D+01
  
  6 0
 s    8  1.00
  0.6665000000D+04  0.6915839628D-03
  0.1000000000D+04  0.5325796153D-02
  0.2280000000D+03  0.2706072104D-01
  0.6471000000D+02  0.1016568461D+00
  0.2106000000D+02  0.2745748236D+00
  0.7495000000D+01  0.4482943189D+00
  0.2797000000D+01  0.2849026107D+00
  0.5215000000D+00  0.1519485921D-01
 s    8  1.00
  0.6665000000D+04 -0.2932696527D-03
  0.1000000000D+04 -0.2318035474D-02
  0.2280000000D+03 -0.1149978604D-01
  0.6471000000D+02 -0.4682672701D-01
  0.2106000000D+02 -0.1284661688D+00
  0.7495000000D+01 -0.3012662725D+00
  0.2797000000D+01 -0.2556307023D+00
  0.5215000000D+00  0.1093793361D+01
 s    1  1.00
  0.1596000000D+00  0.1000000000D+01
 p    3  1.00
  0.9439000000D+01  0.5697925159D-01
  0.2002000000D+01  0.3132072115D+00
  0.5456000000D+00  0.7603767417D+00
 p    1  1.00
  0.1517000000D+00  0.1000000000D+01
 d    1  1.00
  0.5500000000D+00  0.1000000000D+01
  
  2 0
 s    8  1.00
  0.6665000000D+04  0.6915839628D-03
  0.1000000000D+04  0.5325796153D-02
  0.2280000000D+03  0.2706072104D-01
  0.6471000000D+02  0.1016568461D+00
  0.2106000000D+02  0.2745748236D+00
  0.7495000000D+01  0.4482943189D+00
  0.2797000000D+01  0.2849026107D+00
  0.5215000000D+00  0.1519485921D-01
 s    8  1.00
  0.6665000000D+04 -0.2932696527D-03
  0.1000000000D+04 -0.2318035474D-02
  0.2280000000D+03 -0.1149978604D-01
  0.6471000000D+02 -0.4682672701D-01
  0.2106000000D+02 -0.1284661688D+00
  0.7495000000D+01 -0.3012662725D+00
  0.2797000000D+01 -0.2556307023D+00
  0.5215000000D+00  0.1093793361D+01
 s    1  1.00
  0.1596000000D+00  0.1000000000D+01
 p    3  1.00
  0.9439000000D+01  0.5697925159D-01
  0.2002000000D+01  0.3132072115D+00
  0.5456000000D+00  0.7603767417D+00
 p    1  1.00
  0.1517000000D+00  0.1000000000D+01
 d    1  1.00
  0.5500000000D+00  0.1000000000D+01
  
  5 0
 s    8  1.00
  0.6665000000D+04  0.6915839628D-03
  0.1000000000D+04  0.5325796153D-02
  0.2280000000D+03  0.2706072104D-01
  0.6471000000D+02  0.1016568461D+00
  0.2106000000D+02  0.2745748236D+00
  0.7495000000D+01  0.4482943189D+00
  0.2797000000D+01  0.2849026107D+00
  0.5215000000D+00  0.1519485921D-01
 s    8  1.00
  0.6665000000D+04 -0.2932696527D-03
  0.1000000000D+04 -0.2318035474D-02
  0.2280000000D+03 -0.1149978604D-01
  0.6471000000D+02 -0.4682672701D-01
  0.2106000000D+02 -0.1284661688D+00
  0.7495000000D+01 -0.3012662725D+00
  0.2797000000D+01 -0.2556307023D+00
  0.5215000000D+00  0.1093793361D+01
 s    1  1.00
  0.1596000000D+00  0.1000000000D+01
 p    3  1.00
  0.9439000000D+01  0.5697925159D-01
  0.2002000000D+01  0.3132072115D+00
  0.5456000000D+00  0.7603767417D+00
 p    1  1.00
  0.1517000000D+00  0.1000000000D+01
 d    1  1.00
  0.5500000000D+00  0.1000000000D+01
  
  9 0
 s    8  1.00
  0.6665000000D+04  0.6915839628D-03
  0.1000000000D+04  0.5325796153D-02
  0.2280000000D+03  0.2706072104D-01
  0.6471000000D+02  0.1016568461D+00
  0.2106000000D+02  0.2745748236D+00
  0.7495000000D+01  0.4482943189D+00
  0.2797000000D+01  0.2849026107D+00
  0.5215000000D+00  0.1519485921D-01
 s    8  1.00
  0.6665000000D+04 -0.2932696527D-03
  0.1000000000D+04 -0.2318035474D-02
  0.2280000000D+03 -0.1149978604D-01
  0.6471000000D+02 -0.4682672701D-01
  0.2106000000D+02 -0.1284661688D+00
  0.7495000000D+01 -0.3012662725D+00
  0.2797000000D+01 -0.2556307023D+00
  0.5215000000D+00  0.1093793361D+01
 s    1  1.00
  0.1596000000D+00  0.1000000000D+01
 p    3  1.00
  0.9439000000D+01  0.5697925159D-01
  0.2002000000D+01  0.3132072115D+00
  0.5456000000D+00  0.7603767417D+00
 p    1  1.00
  0.1517000000D+00  0.1000000000D+01
 d    1  1.00
  0.5500000000D+00  0.1000000000D+01
  
 10 0
 s    8  1.00
  0.6665000000D+04  0.6915839628D-03
  0.1000000000D+04  0.5325796153D-02
  0.2280000000D+03  0.2706072104D-01
  0.6471000000D+02  0.1016568461D+00
  0.2106000000D+02  0.2745748236D+00
  0.7495000000D+01  0.4482943189D+00
  0.2797000000D+01  0.2849026107D+00
  0.5215000000D+00  0.1519485921D-01
 s    8  1.00
  0.6665000000D+04 -0.2932696527D-03
  0.1000000000D+04 -0.2318035474D-02
  0.2280000000D+03 -0.1149978604D-01
  0.6471000000D+02 -0.4682672701D-01
  0.2106000000D+02 -0.1284661688D+00
  0.7495000000D+01 -0.3012662725D+00
  0.2797000000D+01 -0.2556307023D+00
  0.5215000000D+00  0.1093793361D+01
 s    1  1.00
  0.1596000000D+00  0.1000000000D+01
 p    3  1.00
  0.9439000000D+01  0.5697925159D-01
  0.2002000000D+01  0.3132072115D+00
  0.5456000000D+00  0.7603767417D+00
 p    1  1.00
  0.1517000000D+00  0.1000000000D+01
 d    1  1.00
  0.5500000000D+00  0.1000000000D+01
  
  3 0
 s    3  1.00
  0.1301000000D+02  0.3349872639D-01
  0.1962000000D+01  0.2348008012D+00
  0.4446000000D+00  0.8136829579D+00
 s    1  1.00
  0.1220000000D+00  0.1000000000D+01
 p    1  1.00
  0.7270000000D+00  0.1000000000D+01
  
  8 0
 s    3  1.00
  0.1301000000D+02  0.3349872639D-01
  0.1962000000D+01  0.2348008012D+00
  0.4446000000D+00  0.8136829579D+00
 s    1  1.00
  0.1220000000D+00  0.1000000000D+01
 p    1  1.00
  0.7270000000D+00  0.1000000000D+01
  
  4 0
 s    3  1.00
  0.1301000000D+02  0.3349872639D-01
  0.1962000000D+01  0.2348008012D+00
  0.4446000000D+00  0.8136829579D+00
 s    1  1.00
  0.1220000000D+00  0.1000000000D+01
 p    1  1.00
  0.7270000000D+00  0.1000000000D+01
  
  7 0
 s    3  1.00
  0.1301000000D+02  0.3349872639D-01
  0.1962000000D+01  0.2348008012D+00
  0.4446000000D+00  0.8136829579D+00
 s    1  1.00
  0.1220000000D+00  0.1000000000D+01
 p    1  1.00
  0.7270000000D+00  0.1000000000D+01
  
 11 0
 s    3  1.00
  0.1301000000D+02  0.3349872639D-01
  0.1962000000D+01  0.2348008012D+00
  0.4446000000D+00  0.8136829579D+00
 s    1  1.00
  0.1220000000D+00  0.1000000000D+01
 p    1  1.00
  0.7270000000D+00  0.1000000000D+01
  
 12 0
 s    3  1.00
  0.1301000000D+02  0.3349872639D-01
  0.1962000000D+01  0.2348008012D+00
  0.4446000000D+00  0.8136829579D+00
 s    1  1.00
  0.1220000000D+00  0.1000000000D+01
 p    1  1.00
  0.7270000000D+00  0.1000000000D+01
 
 
[MO]
 Sym=      1.1
 Ene=     -11.2412
 Spin= Alpha
 Occup=    2.000000
1 0.40962291984731
2 0.001423541316925
3 -0.001852641953688
4 0.0
5 0.0
6 0.000092429902096
7 0.0
8 0.0
9 -0.000230093877485
10 -0.000061792240721
11 -0.000049164586035
12 0.000110956826756
13 0.0
14 0.0
15 0.0
16 0.40962291984731
17 0.001423541316925
18 -0.001852641953688
19 0.0
20 0.0
21 -0.000092429902096
22 0.0
23 0.0
24 0.000230093877485
25 -0.000061792240721
26 -0.000049164586035
27 0.000110956826756
28 0.0
29 0.0
30 0.0
31 0.40839952347887
32 0.001417922295229
33 -0.001838624763857
34 0.0
35 -0.000080016612754
36 0.000046117526443
37 0.0
38 0.000202764151620
39 -0.000116016992918
40 -0.000060762288234
41 0.000070272993709
42 -0.000009510705475
43 0.0
44 0.0
45 -0.000080072869486
46 0.40839952347887
47 0.001417922295229
48 -0.001838624763857
49 0.0
50 -0.000080016612754
51 -0.000046117526443
52 0.0
53 0.000202764151620
54 0.000116016992918
55 -0.000060762288234
56 0.000070272993709
57 -0.000009510705475
58 0.0
59 0.0
60 0.000080072869486
61 0.40839952347887
62 0.001417922295229
63 -0.001838624763857
64 0.0
65 0.000080016612754
66 -0.000046117526443
67 0.0
68 -0.000202764151620
69 0.000116016992918
70 -0.000060762288234
71 0.000070272993709
72 -0.000009510705475
73 0.0
74 0.0
75 -0.000080072869486
76 0.40839952347887
77 0.001417922295229
78 -0.001838624763857
79 0.0
80 0.000080016612754
81 0.000046117526443
82 0.0
83 -0.000202764151620
84 -0.000116016992918
85 -0.000060762288234
86 0.000070272993709
87 -0.000009510705475
88 0.0
89 0.0
90 0.000080072869486
91 -0.000140523118511
92 0.000691475974833
93 0.0
94 0.0
95 0.000138178724378
96 -0.000140523118511
97 0.000691475974833
98 0.0
99 0.0
100 -0.000138178724378
101 -0.000139807581860
102 0.000691114780694
103 0.0
104 -0.000118953100404
105 0.000068659457842
106 -0.000139807581860
107 0.000691114780694
108 0.0
109 -0.000118953100404
110 -0.000068659457842
111 -0.000139807581860
112 0.000691114780694
113 0.0
114 0.000118953100404
115 -0.000068659457842
116 -0.000139807581860
117 0.000691114780694
118 0.0
119 0.000118953100404
120 0.000068659457842
 Sym=      1.5
 Ene=     -11.2407
 Spin= Alpha
 Occup=    2.000000
1 0.57902279416461
2 0.002447568844075
3 -0.004616711518343
4 0.0
5 0.0
6 0.000049176672247
7 0.0
8 0.0
9 0.000372340644162
10 -0.000071228621831
11 -0.000031294242660
12 0.000102522864491
13 0.0
14 0.0
15 0.0
16 -0.57902279416461
17 -0.002447568844075
18 0.004616711518343
19 0.0
20 0.0
21 0.000049176672247
22 0.0
23 0.0
24 0.000372340644162
25 0.000071228621831
26 0.000031294242660
27 -0.000102522864491
28 0.0
29 0.0
30 0.0
31 0.28866781558460
32 0.001219443107885
33 -0.002291661861242
34 0.0
35 -0.000040796409026
36 -0.000021489648383
37 0.0
38 0.000498025655807
39 0.001222653906881
40 -0.000034519437833
41 0.000019357110007
42 0.000015162327825
43 0.0
44 0.0
45 -0.000043007165311
46 -0.28866781558460
47 -0.001219443107885
48 0.002291661861242
49 0.0
50 0.000040796409026
51 -0.000021489648383
52 0.0
53 -0.000498025655807
54 0.001222653906881
55 0.000034519437833
56 -0.000019357110007
57 -0.000015162327825
58 0.0
59 0.0
60 -0.000043007165311
61 -0.28866781558460
62 -0.001219443107885
63 0.002291661861242
64 0.0
65 -0.000040796409026
66 -0.000021489648383
67 0.0
68 0.000498025655807
69 0.001222653906881
70 0.000034519437833
71 -0.000019357110007
72 -0.000015162327825
73 0.0
74 0.0
75 0.000043007165311
76 0.28866781558460
77 0.001219443107885
78 -0.002291661861242
79 0.0
80 0.000040796409026
81 -0.000021489648383
82 0.0
83 -0.000498025655807
84 0.001222653906881
85 -0.000034519437833
86 0.000019357110007
87 0.000015162327825
88 0.0
89 0.0
90 0.000043007165311
91 -0.000166286841004
92 0.000612717581121
93 0.0
94 0.0
95 0.000242026148427
96 0.000166286841004
97 -0.000612717581121
98 0.0
99 0.0
100 0.000242026148427
101 -0.000082394322366
102 0.000306939533263
103 0.0
104 -0.000109057395688
105 0.000051799506922
106 0.000082394322366
107 -0.000306939533263
108 0.0
109 0.000109057395688
110 0.000051799506922
111 0.000082394322366
112 -0.000306939533263
113 0.0
114 -0.000109057395688
115 0.000051799506922
116 -0.000082394322366
117 0.000306939533263
118 0.0
119 0.000109057395688
120 0.000051799506922
 Sym=      1.3
 Ene=     -11.2407
 Spin= Alpha
 Occup=    2.000000
1 0.0
2 0.0
3 0.0
4 0.0
5 0.000045062976124
6 0.0
7 0.0
8 -0.001510178660309
9 0.0
10 0.0
11 0.0
12 0.0
13 0.0
14 0.0
15 -0.000022464168696
16 0.0
17 0.0
18 0.0
19 0.0
20 0.000045062976124
21 0.0
22 0.0
23 -0.001510178660309
24 0.0
25 0.0
26 0.0
27 0.0
28 0.0
29 0.0
30 0.000022464168696
31 0.50096191962139
32 0.002117235424996
33 -0.003988619177328
34 0.0
35 -0.000025626650808
36 0.000040806563512
37 0.0
38 -0.000653690116728
39 -0.000494486357101
40 -0.000061061684314
41 0.000067905191096
42 -0.000006843506782
43 0.0
44 0.0
45 -0.000052253153880
46 0.50096191962139
47 0.002117235424996
48 -0.003988619177328
49 0.0
50 -0.000025626650808
51 -0.000040806563512
52 0.0
53 -0.000653690116728
54 0.000494486357101
55 -0.000061061684314
56 0.000067905191096
57 -0.000006843506782
58 0.0
59 0.0
60 0.000052253153880
61 -0.50096191962139
62 -0.002117235424996
63 0.003988619177328
64 0.0
65 -0.000025626650808
66 0.000040806563512
67 0.0
68 -0.000653690116728
69 -0.000494486357101
70 0.000061061684314
71 -0.000067905191096
72 0.000006843506782
73 0.0
74 0.0
75 0.000052253153880
76 -0.50096191962139
77 -0.002117235424996
78 0.003988619177328
79 0.0
80 -0.000025626650808
81 -0.000040806563512
82 0.0
83 -0.000653690116728
84 0.000494486357101
85 0.000061061684314
86 -0.000067905191096
87 0.000006843506782
88 0.0
89 0.0
90 -0.000052253153880
91 0.0
92 0.0
93 0.0
94 0.000011182924077
95 0.0
96 0.0
97 0.0
98 0.0
99 0.000011182924077
100 0.0
101 -0.000143597552249
102 0.000531019470267
103 0.0
104 -0.000178382339470
105 0.000109444437178
106 -0.000143597552249
107 0.000531019470267
108 0.0
109 -0.000178382339470
110 -0.000109444437178
111 0.000143597552249
112 -0.000531019470267
113 0.0
114 -0.000178382339470
115 0.000109444437178
116 0.000143597552249
117 -0.000531019470267
118 0.0
119 -0.000178382339470
120 -0.000109444437178
 Sym=      2.1
 Ene=     -11.2395
 Spin= Alpha
 Occup=    2.000000
1 0.57816696386635
2 0.002683760441445
3 -0.006519593903951
4 0.0
5 0.0
6 0.000043990377032
7 0.0
8 0.0
9 0.001519832143608
10 -0.000500859010688
11 0.000203436959858
12 0.000297422050830
13 0.0
14 0.0
15 0.0
16 0.57816696386635
17 0.002683760441445
18 -0.006519593903951
19 0.0
20 0.0
21 -0.000043990377032
22 0.0
23 0.0
24 -0.001519832143608
25 -0.000500859010688
26 0.000203436959858
27 0.000297422050830
28 0.0
29 0.0
30 0.0
31 -0.28994769333468
32 -0.001344940075350
33 0.003263721397532
34 0.0
35 -0.000006226312302
36 -0.000055225727425
37 0.0
38 0.000964526501903
39 0.000151781160974
40 0.000250564892920
41 -0.000229180109752
42 -0.000021384783168
43 0.0
44 0.0
45 -0.000037689176826
46 -0.28994769333468
47 -0.001344940075350
48 0.003263721397532
49 0.0
50 -0.000006226312302
51 0.000055225727425
52 0.0
53 0.000964526501903
54 -0.000151781160974
55 0.000250564892920
56 -0.000229180109752
57 -0.000021384783168
58 0.0
59 0.0
60 0.000037689176826
61 -0.28994769333468
62 -0.001344940075350
63 0.003263721397532
64 0.0
65 0.000006226312302
66 0.000055225727425
67 0.0
68 -0.000964526501903
69 -0.000151781160974
70 0.000250564892920
71 -0.000229180109752
72 -0.000021384783168
73 0.0
74 0.0
75 -0.000037689176826
76 -0.28994769333468
77 -0.001344940075350
78 0.003263721397532
79 0.0
80 0.000006226312302
81 -0.000055225727425
82 0.0
83 -0.000964526501903
84 0.000151781160974
85 0.000250564892920
86 -0.000229180109752
87 -0.000021384783168
88 0.0
89 0.0
90 0.000037689176826
91 -0.000347450623444
92 0.000256787860729
93 0.0
94 0.0
95 0.000391091394920
96 -0.000347450623444
97 0.000256787860729
98 0.0
99 0.0
100 -0.000391091394920
101 0.000174058341821
102 -0.000129876886021
103 0.0
104 0.000164085837802
105 -0.000107463269462
106 0.000174058341821
107 -0.000129876886021
108 0.0
109 0.000164085837802
110 0.000107463269462
111 0.000174058341821
112 -0.000129876886021
113 0.0
114 -0.000164085837802
115 0.000107463269462
116 0.000174058341821
117 -0.000129876886021
118 0.0
119 -0.000164085837802
120 -0.000107463269462
 Sym=      1.7
 Ene=     -11.2395
 Spin= Alpha
 Occup=    2.000000
1 0.0
2 0.0
3 0.0
4 0.0
5 0.000058841939102
6 0.0
7 0.0
8 -0.000708696435488
9 0.0
10 0.0
11 0.0
12 0.0
13 0.0
14 0.0
15 -0.000141739496790
16 0.0
17 0.0
18 0.0
19 0.0
20 -0.000058841939102
21 0.0
22 0.0
23 0.000708696435488
24 0.0
25 0.0
26 0.0
27 0.0
28 0.0
29 0.0
30 -0.000141739496790
31 0.50120673967216
32 0.002326020083883
33 -0.005648365843586
34 0.0
35 -0.000047844978821
36 -0.000006323049565
37 0.0
38 -0.000962454242832
39 0.000964711829939
40 -0.000433848138920
41 0.000184214075257
42 0.000249634063663
43 0.0
44 0.0
45 -0.000076217516230
46 -0.50120673967216
47 -0.002326020083883
48 0.005648365843586
49 0.0
50 0.000047844978821
51 -0.000006323049565
52 0.0
53 0.000962454242832
54 0.000964711829939
55 0.000433848138920
56 -0.000184214075257
57 -0.000249634063663
58 0.0
59 0.0
60 -0.000076217516230
61 0.50120673967216
62 0.002326020083883
63 -0.005648365843586
64 0.0
65 0.000047844978821
66 0.000006323049565
67 0.0
68 0.000962454242832
69 -0.000964711829939
70 -0.000433848138920
71 0.000184214075257
72 0.000249634063663
73 0.0
74 0.0
75 -0.000076217516230
76 -0.50120673967216
77 -0.002326020083883
78 0.005648365843586
79 0.0
80 -0.000047844978821
81 0.000006323049565
82 0.0
83 -0.000962454242832
84 -0.000964711829939
85 0.000433848138920
86 -0.000184214075257
87 -0.000249634063663
88 0.0
89 0.0
90 -0.000076217516230
91 0.0
92 0.0
93 0.0
94 0.000012736340318
95 0.0
96 0.0
97 0.0
98 0.0
99 -0.000012736340318
100 0.0
101 -0.000301123525585
102 0.000223299284718
103 0.0
104 -0.000296633364854
105 0.000163922834498
106 0.000301123525585
107 -0.000223299284718
108 0.0
109 0.000296633364854
110 0.000163922834498
111 -0.000301123525585
112 0.000223299284718
113 0.0
114 0.000296633364854
115 -0.000163922834498
116 0.000301123525585
117 -0.000223299284718
118 0.0
119 -0.000296633364854
120 -0.000163922834498
 Sym=      2.5
 Ene=     -11.2390
 Spin= Alpha
 Occup=    2.000000
1 -0.40860269180882
2 -0.002107383633282
3 0.007742512125827
4 0.0
5 0.0
6 -0.000011800253962
7 0.0
8 0.0
9 -0.002736983484561
10 0.000547664339561
11 -0.000191419693488
12 -0.000356244646073
13 0.0
14 0.0
15 0.0
16 0.40860269180882
17 0.002107383633282
18 -0.007742512125827
19 0.0
20 0.0
21 -0.000011800253962
22 0.0
23 0.0
24 -0.002736983484561
25 -0.000547664339561
26 0.000191419693488
27 0.000356244646073
28 0.0
29 0.0
30 0.0
31 0.40979463910943
32 0.002112479321044
33 -0.007751886865830
34 0.0
35 -0.000010383888043
36 0.000005941791777
37 0.0
38 -0.002370084489275
39 0.001370363843557
40 -0.000547815479173
41 0.000315190734987
42 0.000232624744186
43 0.0
44 0.0
45 -0.000082561206646
46 -0.40979463910943
47 -0.002112479321044
48 0.007751886865830
49 0.0
50 0.000010383888043
51 0.000005941791777
52 0.0
53 0.002370084489275
54 0.001370363843557
55 0.000547815479173
56 -0.000315190734987
57 -0.000232624744186
58 0.0
59 0.0
60 -0.000082561206646
61 -0.40979463910943
62 -0.002112479321044
63 0.007751886865830
64 0.0
65 -0.000010383888043
66 0.000005941791777
67 0.0
68 -0.002370084489275
69 0.001370363843557
70 0.000547815479173
71 -0.000315190734987
72 -0.000232624744186
73 0.0
74 0.0
75 0.000082561206646
76 0.40979463910943
77 0.002112479321044
78 -0.007751886865830
79 0.0
80 0.000010383888043
81 0.000005941791777
82 0.0
83 0.002370084489275
84 0.001370363843557
85 -0.000547815479173
86 0.000315190734987
87 0.000232624744186
88 0.0
89 0.0
90 0.000082561206646
91 0.000368668470717
92 0.000191269373501
93 0.0
94 0.0
95 -0.000327265998230
96 -0.000368668470717
97 -0.000191269373501
98 0.0
99 0.0
100 -0.000327265998230
101 -0.000369068862700
102 -0.000190001094956
103 0.0
104 -0.000283849761609
105 0.000163867012717
106 0.000369068862700
107 0.000190001094956
108 0.0
109 0.000283849761609
110 0.000163867012717
111 0.000369068862700
112 0.000190001094956
113 0.0
114 -0.000283849761609
115 0.000163867012717
116 -0.000369068862700
117 -0.000190001094956
118 0.0
119 0.000283849761609
120 0.000163867012717
 Sym=      3.1
 Ene=      -1.1448
 Spin= Alpha
 Occup=    2.000000
1 -0.011568395713485
2 0.17995474880377
3 0.10053657656436
4 0.0
5 0.0
6 -0.064224429287497
7 0.0
8 0.0
9 -0.012011540660159
10 -0.009023541955398
11 0.009454696923732
12 -0.000431154968335
13 0.0
14 0.0
15 0.0
16 -0.011568395713485
17 0.17995474880377
18 0.10053657656436
19 0.0
20 0.0