[Molden Format]
[Molpro variables]
_NUMVAR=  828.0000000000000    
_AVOGAD= 0.6022136736000000E+24
_BOLTZ= 0.1380658000000000E-22
_CLIGHT=  29979245800.00000    
_EV2006= 0.3674930886769165E-01
_EV= 0.3674932534394180E-01
_ENULL= 0.8854187817000000E-11
_KJOULE= 0.3808798324128737E-03
_KJOULE/MOL= 0.3808798324128737E-03
_CM= 0.4556335267302901E-05
_CM-1= 0.4556335267302901E-05
_DEB2SI= 0.3335641000000000E-29
_AMU2AU=  1822.888390000000    
_KCAL= 0.1593601117815568E-02
_KCAL/MOL= 0.1593601117815568E-02
_KELVIN2006= 0.3166828861084835E-05
_KELVIN= 0.3166814820820034E-05
_JOULE= 0.4359748200000000E-17
_HERTZ2006= 0.1519829850815779E-15
_HERTZ= 0.1519829846011223E-15
_HZ2006= 0.1519829850815779E-15
_HZ= 0.1519829846011223E-15
_JPCAL=  4.184000000000000    
_PLANCK= 0.6626075540000000E-33
_TOA2006= 0.5291772490000000    
_TOA= 0.5291772090000000    
_TOANG2006= 0.5291772490000000    
_TOANG= 0.5291772090000000    
_TORAD= 0.1745329251994330E-01
_TOCM=  219474.6306700000    
_TODEBYE=  2.541580000000000    
_TOEV2006=  27.21139610000000    
_TOE= 0.4803242000000000E-09
_TOEV=  27.21138390000000    
_TOHERTZ2006=  6579683899900000.    
_TOHERTZ=  6579683920700000.    
_TOHZ2006=  6579683899900000.    
_TOHZ=  6579683920700000.    
_TOK2006=  315773.3000000000    
_TOK=  315774.7000000000    
_TOKCAL=  627.5096000000000    
_TOKELVIN2006=  315773.3000000000    
_TOKELVIN=  315774.7000000000    
_TOKJ=  2625.500000000000    
_TOKJOULE=  2625.500000000000    
_TOKG= 0.1660565586000000E-26
_ANG2006=  1.889725988578923    
_ANG=  1.889726131421507    
_ANGSTROM2006=  1.889725988578923    
_ANGSTROM=  1.889726131421507    
_RPAREF=  0.000000000000000    
_RPADISS=  0.000000000000000    
_IGNORE_UNDEF=  2.000000000000000    
_STRICTCHECK=  0.000000000000000    
_SEW_ONEEL=  0.000000000000000    
_CPPDONE=FALSE
_DKROLL_DONE=  0.000000000000000    
_FOCKDONE=TRUE
_GRADONE=FALSE
_HESSDONE=FALSE
_INTDONE=TRUE
_SCFDONE=TRUE
_MODUL_BLOCK=FALSE
_MODUL_CUDA=FALSE
_MODUL_SLATER=FALSE
_MODUL_MRCC=FALSE
_MODUL_NBO6=FALSE
_MODUL_NECI=TRUE
_MODUL_AIMS=TRUE
_MRCC_EXEC=
_FITC_AO_SAVED=FALSE
_FITC_MO_SAVED=FALSE
_SHARED_FS=TRUE
_LSTYP=SEWARD
_INTYP=INTS
_GEOMTYP=ZMAT
_GRADTYP=ALASKA
_DIRECT=FALSE
_DKHO= -1.000000000000000    
_SYNCM=  0.000000000000000    
_BASIS=USERDEF
_ZORIENT=  1.000000000000000    
_NELEC=  58.00000000000000    
!SPIN=  0.000000000000000    
_QSDSTEP=  0.000000000000000    
_QSDIRC=  0.000000000000000    
_PROGRAM=MATROP
_CPUSTEP= 0.1999999999998181E-01
_SYSSTEP= 0.9999999999998010E-02
_WALLSTEP= 0.2000000000000000    
!DFSCF=  0.000000000000000    
!SCSGRD=  0.000000000000000    
_BASINP=  610.0000000000000    
_CPUTOT=  251.9100000000000    
_DFTEXFAC=  1.000000000000000    
_DMX=  0.000000000000000    
_DMY=  0.000000000000000    
_DMZ=  0.000000000000000    
_DMX_SCF=  0.000000000000000    
_DMY_SCF= -1.075299248127586    
_DMZ_SCF= 0.7004600211734964    
_EHOMO=-0.3229767027581733    
_ELUMO= 0.1116440973141388    
_ENUC=  360.8014524679945    
_EPS1= -20.62855580395924    
_EPS2=-0.6791297267665177    
_GRADEXFAC=  9999.000000000000    
_GRADMETHOD=TRUE
_NMRMETHOD=  0.000000000000000    
!GRID_FREEZE= -1.000000000000000    
_ITERATIONS=  0.000000000000000    
_LASTNELEC=  10.00000000000000    
_LASTSPIN=  2.000000000000000    
_LASTSYM=  1.000000000000000    
_MPP_PROG=  0.000000000000000    
_NPROC_MPP=  1.000000000000000    
_NPROC_MPPX=  1.000000000000000    
_NPROC_SMP=  16.00000000000000    
_NUMSTEP=  0.000000000000000    
_ORBITAL=  2141.200000000000    
_PI=  3.141592653589793    
_SEIG_MIN= 0.1419611248759524E-02
_SEWPROP=TRUE
_STATUS=  0.000000000000000    
_SYSTOT=  21.93000000000000    
_VERSION=  2012001.000000000    
_WALLTOT=  146.3100000000000    
_DATE=24-Jan-19
_LASTORB=MCSCF
_MACHINE=Linux-4.9.0-8-amd64/nympha18.meta.zcu.cz(x86_64) (16 PROC) 64 bit serial version
_OUTPUT=/auto/brno2/home/masiz4am/git/UKRmol-in/tests/suite/Cs_scattering_CC/molpro.xml
_PGROUP=Cs
_TIME=16:41:55
_LIBMOL=/afs/ics.muni.cz/software/molpro-2012.1/molprop_2012_1_Linux_x86_64_i8/lib/
!VIBCNT=  0.000000000000000    
!RGHFCNT=  0.000000000000000    
!SURFREC=  0.000000000000000    
!POLYREC=  0.000000000000000    
!DIPREC=  0.000000000000000    
!VSCFREC=  0.000000000000000    
!VCIREC=  0.000000000000000    
!PVCIREC=  0.000000000000000    
!VMP2REC=  0.000000000000000    
!VMCSCFREC=  0.000000000000000    
!VMRCIREC=  0.000000000000000    
!VIBINFO=  0.000000000000000    
!GAREC=  0.000000000000000    
!SCFORB=  21002.00000000000    
!MCORB=  21412.00000000000    
!NEWMOL= -1.000000000000000    
!NEWSYM= -1.000000000000000    
_SLFILES=slscratch
_NGSSTO=  9.000000000000000    
_SIN=SIN
_COS=COS
_TAN=TAN
_ACOS=ACOS
_ASIN=ASIN
_ATAN=ATAN
_COSH=COSH
_SINH=SINH
_TANH=TANH
_ABS=ABS
_MOD=MOD
_ERF=ERF
_REFC=REFC
_ERFC=ERFC
_HYPOT=HYPOT
_J0=J0
_J1=J1
_JN=JN
_GAMMA=GAMMA
_LGAMMA=LGAMMA
_Y0=Y0
_Y1=Y1
_YN=YN
_EXP=EXP
_LOG=LOG
_LOG10=LOG10
_SQRT=SQRT
_INT=INT
_NINT=NINT
_MAX=MAX
_MIN=MIN
_COSMO=  0.000000000000000    
_COSMOIT=  0.000000000000000    
_COSMOES=  0.000000000000000    
_COSMOEDS=  0.000000000000000    
_COSMOEC=  0.000000000000000    
_COSMOEDCORR=  0.000000000000000    
_FEPSI=  1.000000000000000    
_SL_IsMM=  0.000000000000000    
_SL_NSYM=  2.000000000000000    
_SL_System_BitSw=  0.000000000000000    
_SL_Unique_atoms=  0.000000000000000    
_SL_GRAD=  0.000000000000000    
_SL_MAXUPD_Hess=  5.000000000000000    
_SL_N_PRINT_COD=  5.000000000000000    
_SL_PRINT_CODES=  0.000000000000000    
_SL_BasType=  0.000000000000000    
_SL_Energy_Pred=  0.000000000000000    
_SL_New_Coords=  0.000000000000000    
_SL_Total_Nuclea=  0.000000000000000    
_SL_Highest_Mltp=  0.000000000000000    
_SL_Ref_Geom=  0.000000000000000    
_SL_Symmetry_ope=  1.000000000000000    
_SL_agrad=  0.000000000000000    
_SL_GrdMax=  0.000000000000000    
_SL_GrdNorm=  0.000000000000000    
_SL_GrdRMS=  0.000000000000000    
!LATTICE= -1.000000000000000    
!NEWLATTICE=  0.000000000000000    
!LATGRAD_VAR=FALSE
!SEW_LATTICE=  1.000000000000000    
!LOCAL=  0.000000000000000    
!SAVEDOM= -1.000000000000000    
!RESTDOM= -1.000000000000000    
!SAVEDOM_HF= -1.000000000000000    
!RESTDOM_HF= -1.000000000000000    
!HESSREC=  0.000000000000000    
!FREQREC=  0.000000000000000    
!NMODREC=  0.000000000000000    
!GTASKS=  0.000000000000000    
!HTASKS=  0.000000000000000    
!THRCHG= 0.1000000000000000    
!DEBUG= -1.000000000000000    
!CFIT_CPHF=  0.000000000000000    
!RDOMAUX_CPHF=  3.000000000000000    
!THRAO_CPHF= 0.1000000000000000E-09
!THRMO_CPHF= 0.1000000000000000E-08
!THROV_CPHF= 0.1000000000000000E-11
!THRSW_CPHF= 0.1000000000000000E-09
!THRPROD_CPHF= 0.1000000000000000E-08
!THRAOPR_CPHF= 0.1000000000000000E-11
!CFIT_SCFGRD=  0.000000000000000    
!RDOMAUX_SCFGRD=  5.000000000000000    
!THRAO_SCFGRD= 0.1000000000000000E-09
!THRMO_SCFGRD= 0.1000000000000000E-08
!THROV_SCFGRD= 0.1000000000000000E-11
!THRSW_SCFGRD= 0.1000000000000000E-09
!THRPROD_SCFGRD= 0.1000000000000000E-08
!THRAOPR_SCFGRD= 0.1000000000000000E-11
!LOCFIT_SCF=  0.000000000000000    
!LOCFIT_MP2= -1.000000000000000    
_RIDOM=  0.000000000000000    
!CC2_METHOD=  0.000000000000000    
_BASIS2006=FALSE
_SVDDEL= -1.000000000000000    
_SVDDELA= -1.000000000000000    
_SVDDELP= -1.000000000000000    
_SVDDELF= -1.000000000000000    
_SVDDELS= -1.000000000000000    
_SVDDEL_ABS= -1.000000000000000    
_SVDDELA_ABS= -1.000000000000000    
_SVDDELP_ABS= -1.000000000000000    
_SVDDELF_ABS= -1.000000000000000    
_SVDDELS_ABS= -1.000000000000000    
_MAXBASIS=  0.000000000000000    
!OPT_CONICAL=  0.000000000000000    
!CLEARSP_JGRID=  0.000000000000000    
_4EXT_NDISKS=  1.000000000000000    
!ZMP=  0.000000000000000    
_MAXIT_ZMP=  500.0000000000000    
_MAXDIS_ZMP=  100.0000000000000    
_ACCU_ZMP=  14.00000000000000    
_SHIFTA_ZMP= -100.0000000000000    
!EMBEDFLAG=  1.000000000000000    
!EMBED=FALSE
!EMBED_F12=FALSE
!EMBEDNUC=  0.000000000000000    
_EMBEDENERGY=  0.000000000000000    
_KSPACETIME=  0.000000000000000    
_RSPACETIME=  0.000000000000000    
!EMBED_DFC=FALSE
!NUM_VOIDS=  0.000000000000000    
_IBODY=  0.000000000000000    
_EMBE_TOTAL=  0.000000000000000    
_EMBE_HF=  0.000000000000000    
_EMBE_CORR=  0.000000000000000    
!EDFT=  0.000000000000000    
_IFASTLATGRAD=  0.000000000000000    
_SINDEX=  0.000000000000000    
M_NAME=CASSCF(10,8)
M_CLOSED=  22.00000000000000    
M_OCC=  25.00000000000000    
GX1=  0.000000000000000    
GY1=  2.390300000000000    
GZ1= 0.7342000000000000    
GX2=  0.000000000000000    
GY2=  2.328300000000000    
GZ2= -2.003500000000000    
GX3=  0.000000000000000    
GY3=  0.000000000000000    
GZ3=  1.878600000000000    
GX4=  0.000000000000000    
GY4= 0.1009000000000000    
GZ4= -3.216300000000000    
GX5=  0.000000000000000    
GY5=  4.309300000000000    
GZ5=  2.017300000000000    
GX6=  0.000000000000000    
GY6= -2.151500000000000    
GZ6= -1.929400000000000    
GX7=  0.000000000000000    
GY7= -2.309400000000000    
GZ7= 0.6820000000000001    
GX8=  0.000000000000000    
GY8= -4.331100000000000    
GZ8=  1.789900000000000    
GX9=  0.000000000000000    
GY9=  4.109200000000000    
GZ9= -2.981200000000000    
GX10=  0.000000000000000    
GY10=-0.7290000000000001E-01
GZ10=  3.780800000000000    
GX11=  0.000000000000000    
GY11=-0.4140000000000000E-01
GZ11= -5.251700000000000    
GX12=  0.000000000000000    
GY12= -3.821000000000000    
GZ12=  2.829700000000000    
_TRDMX=  0.000000000000000    
_TRDMY= 0.6218047873060875    
_TRDMZ= -1.155864912560472    
_QMXX= 0.8201740268018511    
_TRQMXX=-0.4045175194082915    
_QMYY= -11.06369897025240    
_TRQMYY=-0.1613468357006229    
_QMZZ=  10.24352494345031    
_TRQMZZ= 0.5658643551089144    
_QMXY=  0.000000000000000    
_TRQMXY=  0.000000000000000    
_QMXZ=  0.000000000000000    
_TRQMXZ=  0.000000000000000    
_QMYZ= -12.94280640522413    
_TRQMYZ=  1.944815619079716    
_QMRR= -103.0644748962708    
_TRQMRR= 0.9682499220955743    
[Atoms] Angs
C     1    6         0.0000000000        1.2648922827        0.3885219068
C     2    6         0.0000000000        1.2320832957       -1.0602065382
N     3    7         0.0000000000        0.0000000000        0.9941123048
C     4    6         0.0000000000        0.0533939804       -1.7019926573
O     5    8         0.0000000000        2.2803833467        1.0675091837
N     6    7         0.0000000000       -1.1385247652       -1.0209945070
C     7    6         0.0000000000       -1.2220818465        0.3608988565
O     8    8         0.0000000000       -2.2919194099        0.9471742864
H     9    1         0.0000000000        2.1744949872       -1.5775830955
H    10    1         0.0000000000       -0.0385770185        2.0007131918
H    11    1         0.0000000000       -0.0219079365       -2.7790799485
H    12    1         0.0000000000       -2.0219861156        1.4974127483
[GTO]
  1 0
 s    8  1.00
  0.6665000000D+04  0.6915839628D-03
  0.1000000000D+04  0.5325796153D-02
  0.2280000000D+03  0.2706072104D-01
  0.6471000000D+02  0.1016568461D+00
  0.2106000000D+02  0.2745748236D+00
  0.7495000000D+01  0.4482943189D+00
  0.2797000000D+01  0.2849026107D+00
  0.5215000000D+00  0.1519485921D-01
 s    8  1.00
  0.6665000000D+04 -0.2932696527D-03
  0.1000000000D+04 -0.2318035474D-02
  0.2280000000D+03 -0.1149978604D-01
  0.6471000000D+02 -0.4682672701D-01
  0.2106000000D+02 -0.1284661688D+00
  0.7495000000D+01 -0.3012662725D+00
  0.2797000000D+01 -0.2556307023D+00
  0.5215000000D+00  0.1093793361D+01
 s    1  1.00
  0.1596000000D+00  0.1000000000D+01
 p    3  1.00
  0.9439000000D+01  0.5697925159D-01
  0.2002000000D+01  0.3132072115D+00
  0.5456000000D+00  0.7603767417D+00
 p    1  1.00
  0.1517000000D+00  0.1000000000D+01
 d    1  1.00
  0.5500000000D+00  0.1000000000D+01
  
  2 0
 s    8  1.00
  0.6665000000D+04  0.6915839628D-03
  0.1000000000D+04  0.5325796153D-02
  0.2280000000D+03  0.2706072104D-01
  0.6471000000D+02  0.1016568461D+00
  0.2106000000D+02  0.2745748236D+00
  0.7495000000D+01  0.4482943189D+00
  0.2797000000D+01  0.2849026107D+00
  0.5215000000D+00  0.1519485921D-01
 s    8  1.00
  0.6665000000D+04 -0.2932696527D-03
  0.1000000000D+04 -0.2318035474D-02
  0.2280000000D+03 -0.1149978604D-01
  0.6471000000D+02 -0.4682672701D-01
  0.2106000000D+02 -0.1284661688D+00
  0.7495000000D+01 -0.3012662725D+00
  0.2797000000D+01 -0.2556307023D+00
  0.5215000000D+00  0.1093793361D+01
 s    1  1.00
  0.1596000000D+00  0.1000000000D+01
 p    3  1.00
  0.9439000000D+01  0.5697925159D-01
  0.2002000000D+01  0.3132072115D+00
  0.5456000000D+00  0.7603767417D+00
 p    1  1.00
  0.1517000000D+00  0.1000000000D+01
 d    1  1.00
  0.5500000000D+00  0.1000000000D+01
  
  3 0
 s    8  1.00
  0.9046000000D+04  0.6996174134D-03
  0.1357000000D+04  0.5386054630D-02
  0.3093000000D+03  0.2739102119D-01
  0.8773000000D+02  0.1031505920D+00
  0.2856000000D+02  0.2785706633D+00
  0.1021000000D+02  0.4482948495D+00
  0.3838000000D+01  0.2780859284D+00
  0.7466000000D+00  0.1543156123D-01
 s    8  1.00
  0.9046000000D+04 -0.3049900960D-03
  0.1357000000D+04 -0.2408026379D-02
  0.3093000000D+03 -0.1194444873D-01
  0.8773000000D+02 -0.4892599291D-01
  0.2856000000D+02 -0.1344727247D+00
  0.1021000000D+02 -0.3151125777D+00
  0.3838000000D+01 -0.2428578325D+00
  0.7466000000D+00  0.1094382207D+01
 s    1  1.00
  0.2248000000D+00  0.1000000000D+01
 p    3  1.00
  0.1355000000D+02  0.5890567677D-01
  0.2917000000D+01  0.3204611067D+00
  0.7973000000D+00  0.7530420618D+00
 p    1  1.00
  0.2185000000D+00  0.1000000000D+01
 d    1  1.00
  0.8170000000D+00  0.1000000000D+01
  
  4 0
 s    8  1.00
  0.6665000000D+04  0.6915839628D-03
  0.1000000000D+04  0.5325796153D-02
  0.2280000000D+03  0.2706072104D-01
  0.6471000000D+02  0.1016568461D+00
  0.2106000000D+02  0.2745748236D+00
  0.7495000000D+01  0.4482943189D+00
  0.2797000000D+01  0.2849026107D+00
  0.5215000000D+00  0.1519485921D-01
 s    8  1.00
  0.6665000000D+04 -0.2932696527D-03
  0.1000000000D+04 -0.2318035474D-02
  0.2280000000D+03 -0.1149978604D-01
  0.6471000000D+02 -0.4682672701D-01
  0.2106000000D+02 -0.1284661688D+00
  0.7495000000D+01 -0.3012662725D+00
  0.2797000000D+01 -0.2556307023D+00
  0.5215000000D+00  0.1093793361D+01
 s    1  1.00
  0.1596000000D+00  0.1000000000D+01
 p    3  1.00
  0.9439000000D+01  0.5697925159D-01
  0.2002000000D+01  0.3132072115D+00
  0.5456000000D+00  0.7603767417D+00
 p    1  1.00
  0.1517000000D+00  0.1000000000D+01
 d    1  1.00
  0.5500000000D+00  0.1000000000D+01
  
  5 0
 s    8  1.00
  0.1172000000D+05  0.7096459465D-03
  0.1759000000D+04  0.5467272292D-02
  0.4008000000D+03  0.2782311861D-01
  0.1137000000D+03  0.1047477397D+00
  0.3703000000D+02  0.2829208464D+00
  0.1327000000D+02  0.4484952387D+00
  0.5025000000D+01  0.2708168852D+00
  0.1013000000D+01  0.1545029161D-01
 s    8  1.00
  0.1172000000D+05 -0.3144434117D-03
  0.1759000000D+04 -0.2482137681D-02
  0.4008000000D+03 -0.1231635538D-01
  0.1137000000D+03 -0.5053891734D-01
  0.3703000000D+02 -0.1393849033D+00
  0.1327000000D+02 -0.3250774948D+00
  0.5025000000D+01 -0.2298483076D+00
  0.1013000000D+01  0.1095379347D+01
 s    1  1.00
  0.3023000000D+00  0.1000000000D+01
 p    3  1.00
  0.1770000000D+02  0.6267916628D-01
  0.3854000000D+01  0.3335365659D+00
  0.1046000000D+01  0.7412396416D+00
 p    1  1.00
  0.2753000000D+00  0.1000000000D+01
 d    1  1.00
  0.1185000000D+01  0.1000000000D+01
  
  6 0
 s    8  1.00
  0.9046000000D+04  0.6996174134D-03
  0.1357000000D+04  0.5386054630D-02
  0.3093000000D+03  0.2739102119D-01
  0.8773000000D+02  0.1031505920D+00
  0.2856000000D+02  0.2785706633D+00
  0.1021000000D+02  0.4482948495D+00
  0.3838000000D+01  0.2780859284D+00
  0.7466000000D+00  0.1543156123D-01
 s    8  1.00
  0.9046000000D+04 -0.3049900960D-03
  0.1357000000D+04 -0.2408026379D-02
  0.3093000000D+03 -0.1194444873D-01
  0.8773000000D+02 -0.4892599291D-01
  0.2856000000D+02 -0.1344727247D+00
  0.1021000000D+02 -0.3151125777D+00
  0.3838000000D+01 -0.2428578325D+00
  0.7466000000D+00  0.1094382207D+01
 s    1  1.00
  0.2248000000D+00  0.1000000000D+01
 p    3  1.00
  0.1355000000D+02  0.5890567677D-01
  0.2917000000D+01  0.3204611067D+00
  0.7973000000D+00  0.7530420618D+00
 p    1  1.00
  0.2185000000D+00  0.1000000000D+01
 d    1  1.00
  0.8170000000D+00  0.1000000000D+01
  
  7 0
 s    8  1.00
  0.6665000000D+04  0.6915839628D-03
  0.1000000000D+04  0.5325796153D-02
  0.2280000000D+03  0.2706072104D-01
  0.6471000000D+02  0.1016568461D+00
  0.2106000000D+02  0.2745748236D+00
  0.7495000000D+01  0.4482943189D+00
  0.2797000000D+01  0.2849026107D+00
  0.5215000000D+00  0.1519485921D-01
 s    8  1.00
  0.6665000000D+04 -0.2932696527D-03
  0.1000000000D+04 -0.2318035474D-02
  0.2280000000D+03 -0.1149978604D-01
  0.6471000000D+02 -0.4682672701D-01
  0.2106000000D+02 -0.1284661688D+00
  0.7495000000D+01 -0.3012662725D+00
  0.2797000000D+01 -0.2556307023D+00
  0.5215000000D+00  0.1093793361D+01
 s    1  1.00
  0.1596000000D+00  0.1000000000D+01
 p    3  1.00
  0.9439000000D+01  0.5697925159D-01
  0.2002000000D+01  0.3132072115D+00
  0.5456000000D+00  0.7603767417D+00
 p    1  1.00
  0.1517000000D+00  0.1000000000D+01
 d    1  1.00
  0.5500000000D+00  0.1000000000D+01
  
  8 0
 s    8  1.00
  0.1172000000D+05  0.7096459465D-03
  0.1759000000D+04  0.5467272292D-02
  0.4008000000D+03  0.2782311861D-01
  0.1137000000D+03  0.1047477397D+00
  0.3703000000D+02  0.2829208464D+00
  0.1327000000D+02  0.4484952387D+00
  0.5025000000D+01  0.2708168852D+00
  0.1013000000D+01  0.1545029161D-01
 s    8  1.00
  0.1172000000D+05 -0.3144434117D-03
  0.1759000000D+04 -0.2482137681D-02
  0.4008000000D+03 -0.1231635538D-01
  0.1137000000D+03 -0.5053891734D-01
  0.3703000000D+02 -0.1393849033D+00
  0.1327000000D+02 -0.3250774948D+00
  0.5025000000D+01 -0.2298483076D+00
  0.1013000000D+01  0.1095379347D+01
 s    1  1.00
  0.3023000000D+00  0.1000000000D+01
 p    3  1.00
  0.1770000000D+02  0.6267916628D-01
  0.3854000000D+01  0.3335365659D+00
  0.1046000000D+01  0.7412396416D+00
 p    1  1.00
  0.2753000000D+00  0.1000000000D+01
 d    1  1.00
  0.1185000000D+01  0.1000000000D+01
  
  9 0
 s    3  1.00
  0.1301000000D+02  0.3349872639D-01
  0.1962000000D+01  0.2348008012D+00
  0.4446000000D+00  0.8136829579D+00
 s    1  1.00
  0.1220000000D+00  0.1000000000D+01
 p    1  1.00
  0.7270000000D+00  0.1000000000D+01
  
 10 0
 s    3  1.00
  0.1301000000D+02  0.3349872639D-01
  0.1962000000D+01  0.2348008012D+00
  0.4446000000D+00  0.8136829579D+00
 s    1  1.00
  0.1220000000D+00  0.1000000000D+01
 p    1  1.00
  0.7270000000D+00  0.1000000000D+01
  
 11 0
 s    3  1.00
  0.1301000000D+02  0.3349872639D-01
  0.1962000000D+01  0.2348008012D+00
  0.4446000000D+00  0.8136829579D+00
 s    1  1.00
  0.1220000000D+00  0.1000000000D+01
 p    1  1.00
  0.7270000000D+00  0.1000000000D+01
  
 12 0
 s    3  1.00
  0.1301000000D+02  0.3349872639D-01
  0.1962000000D+01  0.2348008012D+00
  0.4446000000D+00  0.8136829579D+00
 s    1  1.00
  0.1220000000D+00  0.1000000000D+01
 p    1  1.00
  0.7270000000D+00  0.1000000000D+01
 
 
[MO]
 Sym=      1.1
 Ene=     -20.6286
 Spin= Alpha
 Occup=    2.000000
1 -0.000103156134760
2 -0.000191078332199
3 -0.000054540162831
4 0.0
5 0.000070635580216
6 -0.000013993347577
7 0.0
8 -0.000201961582126
9 0.000102687414690
10 -0.000021504269634
11 -0.000028207279069
12 0.000049711548703
13 0.0
14 0.0
15 -0.000068287718879
16 -0.000051950384925
17 -0.000100607141157
18 -0.000073865591315
19 0.0
20 0.000031715039663
21 -0.000003590861363
22 0.0
23 0.000062034087070
24 0.000082986811186
25 -0.000006176018354
26 -0.000000249718958
27 0.000006425737311
28 0.0
29 0.0
30 0.000000816177527
31 -0.000089321574049
32 -0.000178215041024
33 0.000624535012694
34 0.0
35 0.000055985168666
36 0.000068247403603
37 0.0
38 0.000156639836453
39 -0.000941477981922
40 -0.000026824477635
41 -0.000151127121766
42 0.000177951599402
43 0.0
44 0.0
45 0.000054949594087
46 -0.000128641089541
47 -0.000232409983231
48 0.000329681302194
49 0.0
50 0.000039456127811
51 -0.000064774304603
52 0.0
53 -0.000020812830359
54 0.000540451260118
55 -0.000056057437889
56 0.000073275963190
57 -0.000017218525301
58 0.0
59 0.0
60 -0.000003108309308
61 -0.000008830196332
62 -0.000012879620028
63 0.000115079124857
64 0.0
65 -0.000015026618340
66 -0.000007449546123
67 0.0
68 0.000004269419611
69 -0.000060745664221
70 -0.000002059327735
71 -0.000004095325810
72 0.000006154653545
73 0.0
74 0.0
75 0.000015337233830
76 -0.000119879781148
77 -0.000237547940167
78 0.000772788620470
79 0.0
80 0.000003821288310
81 -0.000066593152144
82 0.0
83 0.000534378148652
84 0.000225308331524
85 -0.000011984390038
86 0.000048533991820
87 -0.000036549601781
88 0.0
89 0.0
90 0.000177317704896
91 0.000271604736352
92 0.000425453942828
93 0.001662374615688
94 0.0
95 -0.000118651072391
96 0.000090910350297
97 0.0
98 -0.003019939004780
99 0.002000298655385
100 0.000103389436957
101 -0.000358080078435
102 0.000254690641478
103 0.0
104 0.0
105 0.000378605776168
106 1.00287935034258
107 0.005485883246530
108 -0.004679800205000
109 0.0
110 0.002939638779561
111 0.002238865609890
112 0.0
113 -0.001363520376491
114 0.001454298499397
115 -0.000491588379939
116 -0.000158907224712
117 0.000650495604652
118 0.0
119 0.0
120 0.000756790676904
121 0.000005872072266
122 0.000051166805936
123 0.0
124 -0.000015567021201
125 0.000004778421666
126 0.000127434989386
127 0.000117569129657
128 0.0
129 0.000026430452264
130 0.000056954426465
131 0.000062435645355
132 0.000261446105083
133 0.0
134 0.000022233246218
135 0.000013791411248
136 -0.004306290570604
137 -0.000540189248734
138 0.0
139 0.000840273076407
140 0.002133231885380
 Sym=      2.1
 Ene=     -20.4926
 Spin= Alpha
 Occup=    2.000000
1 0.000306527263898
2 0.000689957571629
3 0.001116880443500
4 0.0
5 0.000331843369849
6 0.000203475717125
7 0.0
8 0.003658884753469
9 0.001792305594850
10 0.000226630608408
11 -0.000338261568105
12 0.000111630959697
13 0.0
14 0.0
15 -0.000605121349911
16 -0.000080067835332
17 -0.000181262552057
18 0.001739717472779
19 0.0
20 0.000058186235371
21 -0.000107280225587
22 0.0
23 -0.001844099362018
24 -0.000135516331153
25 -0.000114723180214
26 0.000192995779622
27 -0.000078272599408
28 0.0
29 0.0
30 -0.000418487874138
31 -0.000130523184688
32 -0.000289555638825
33 0.001017174332828
34 0.0
35 -0.000149540334994
36 0.000091061203677
37 0.0
38 0.000217698758395
39 -0.000825660657197
40 -0.000036123433650
41 -0.000164342902156
42 0.000200466335805
43 0.0
44 0.0
45 -0.000051451705855
46 -0.000006090137829
47 0.000005087517285
48 -0.001251914996307
49 0.0
50 0.000009855461659
51 -0.000014691708885
52 0.0
53 -0.000549087237214
54 0.000094867376902
55 -0.000032326412127
56 0.000166547657060
57 -0.000134221244933
58 0.0
59 0.0
60 -0.000045397853391
61 1.00143353278497
62 0.002329567453877
63 -0.006911427243431
64 0.0
65 -0.001919307399314
66 -0.001195334357443
67 0.0
68 0.001194261363283
69 0.000874990205950
70 -0.000242018372333
71 0.000153996181802
72 0.000088022190532
73 0.0
74 0.0
75 0.000078206848987
76 0.000004876884467
77 -0.000000375009993
78 -0.000297903879312
79 0.0
80 0.000007920936767
81 -0.000011474361392
82 0.0
83 -0.000129234594925
84 0.000066267415516
85 0.000018743299339
86 0.000011428134399
87 -0.000030171433738
88 0.0
89 0.0
90 0.000042866060321
91 -0.000114564180685
92 -0.000189421442594
93 0.000156246103726
94 0.0
95 -0.000017285439806
96 0.000008981604639
97 0.0
98 0.000486414295207
99 0.000011208902188
100 -0.000040157212184
101 -0.000065849446140
102 0.000106006658324
103 0.0
104 0.0
105 0.000084226340141
106 -0.000007274180523
107 -0.000017138782010
108 0.000154055225403
109 0.0
110 0.000003954851355
111 -0.000001389922243
112 0.0
113 0.000030543887515
114 -0.000174983725075
115 0.000003055759123
116 0.000007677255130
117 -0.000010733014254
118 0.0
119 0.0
120 -0.000026947826826
121 -0.000133218399294
122 0.000360558771065
123 0.0
124 0.000186141513398
125 -0.000059318998919
126 0.000033561890403
127 -0.000004592186072
128 0.0
129 -0.000063333521347
130 0.000088575957041
131 0.000154679327771
132 0.000112607504967
133 0.0
134 0.000010513918532
135 0.000051775204240
136 0.000039533758703
137 0.000189534987467
138 0.0
139 -0.000013434722476
140 0.000012119503466
 Sym=      3.1
 Ene=     -15.6457
 Spin= Alpha
 Occup=    2.000000
1 0.000051139884267
2 0.000032695858206
3 0.002365496479548
4 0.0
5 -0.000060684988882
6 0.000050083782308
7 0.0
8 -0.002997330278784
9 0.001036937114990
10 0.000010004844620
11 -0.000022293064966
12 0.000012288220346
13 0.0
14 0.0
15 0.000249653143942
16 -0.000000030549794
17 -0.000007539868009
18 -0.001377846196636
19 0.0
20 0.000001932741301
21 -0.000086123141758
22 0.0
23 0.002172519766323
24 0.000718374446722
25 -0.000056507034622
26 0.000050438269340
27 0.000006068765283
28 0.0
29 0.0
30 0.000058275631121
31 1.00203426278655
32 0.003702797531936
33 -0.010102267797964
34 0.0
35 -0.000337088334056
36 0.000029731528305
37 0.0
38 -0.000068107987180
39 0.001893368283986
40 -0.000076981587349
41 -0.000094554508439
42 0.000171536095788
43 0.0
44 0.0
45 0.000009415497497
46 -0.000057241605591
47 -0.000092682482884
48 0.002635004220616
49 0.0
50 -0.000028326069281
51 -0.000005124844620
52 0.0
53 0.000762376163025
54 0.000621069256566
55 -0.000081192826754
56 0.000016304920291
57 0.000064887906464
58 0.0
59 0.0
60 0.000004661338716
61 -0.000083376777194
62 -0.000161883059214
63 0.000451413980372
64 0.0
65 -0.000022542873202
66 0.000032313649654
67 0.0
68 0.000365282160125
69 -0.000386456477269
70 -0.000000290138206
71 -0.000064733708918
72 0.000065023847125
73 0.0
74 0.0
75 -0.000014912913465
76 -0.000453833011463
77 -0.000086312846016
78 -0.000245817457773
79 0.0
80 0.000028702923784
81 -0.000083220577262
82 0.0
83 -0.000762775622631
84 0.000101843924938
85 -0.000040557228389
86 0.000038743662907
87 0.000001813565482
88 0.0
89 0.0
90 -0.000064647883519
91 0.000088701626189
92 0.000069465454123
93 0.002503742576879
94 0.0
95 0.000086353081945
96 0.000057674858419
97 0.0
98 0.002224896425891
99 0.000974359923328
100 0.000067968469177
101 -0.000125455230809
102 0.000057486761632
103 0.0
104 0.0
105 -0.000392278647971
106 -0.000035843700942
107 -0.000096773977316
108 -0.000049210452104
109 0.0
110 -0.000057612937523
111 0.000038812810533
112 0.0
113 -0.000424668349527
114 -0.000577045097616
115 0.000026390426249
116 -0.000075472024060
117 0.000049081597810
118 0.0
119 0.0
120 -0.000042486830418
121 -0.000167268216060
122 -0.000363925932898
123 0.0
124 -0.000063242097768
125 -0.000048926393736
126 -0.000208172687871
127 -0.000070529454124
128 0.0
129 -0.000016218066629
130 0.000586698050654
131 -0.000120718050469
132 0.000094877262212
133 0.0
134 -0.000038752765245
135 -0.000039827031806
136 0.000233663157109
137 0.000116224503975
138 0.0
139 -0.000013459722780
140 0.000049569417764
 Sym=      4.1
 Ene=     -15.6221
 Spin= Alpha
 Occup=    2.000000
1 -0.000038072982978
2 -0.000070301705046
3 0.002214563309441
4 0.0
5 -0.000021230988584
6 0.000040870240764
7 0.0
8 -0.000047039727948
9 -0.001056005884876
10 -0.000045667225683
11 0.000012503435526
12 0.000033163790158
13 0.0
14 0.0
15 0.000039532414496
16 0.000063962468228
17 0.000102312057678
18 -0.002792361291619
19 0.0
20 0.000107610431875
21 0.000022282811653
22 0.0
23 0.001188121443603
24 -0.001752348094851
25 -0.000023220151347
26 -0.000139412402162
27 0.000162632553509
28 0.0
29 0.0
30 0.000036746636172
31 0.000336136731643
32 -0.000157707176849
33 0.000063087838574
34 0.0
35 0.000099175600933
36 0.000037660623673
37 0.0
38 -0.000551624798031
39 0.000684390185337
40 -0.000091783987020
41 0.000071048185483
42 0.000020735801537
43 0.0
44 0.0
45 -0.000074207228465
46 0.000088431214257
47 0.000055682113680
48 0.003410375833092
49 0.0
50 -0.000026174526844
51 -0.000014611017436
52 0.0
53 -0.000982871842489
54 0.002596606516393
55 0.000030752418350
56 -0.000377269140670
57 0.000346516722321
58 0.0
59 0.0
60 0.000341063449545
61 -0.000001338178925
62 -0.000005392610401
63 -0.000108816140201
64 0.0
65 0.000028080748873
66 -0.000009661629393
67 0.0
68 -0.000009855162273
69 0.000187953449331
70 0.000000956984098
71 0.000003022595754
72 -0.000003979579852
73 0.0
74 0.0
75 -0.000016746302490
76 1.00189647315591
77 0.003176108702665
78 -0.010311661730371
79 0.0
80 0.001167592385642
81 0.000840472373512
82 0.0
83 -0.002032732220220
84 -0.001702731232158
85 -0.000068431363429
86 -0.000034472680492
87 0.000102904043922
88 0.0
89 0.0
90 -0.000188017978354
91 0.000137964121348
92 0.000129508292454
93 0.002226277449649
94 0.0
95 0.000044672749365
96 -0.000106659036050
97 0.0
98 0.000759146247049
99 -0.003149372540851
100 0.000144110869629
101 0.000301587027354
102 -0.000445697896983
103 0.0
104 0.0
105 -0.000059451402018
106 -0.000056927203165
107 -0.000126454422296
108 0.000588692369990
109 0.0
110 -0.000112174856516
111 0.000089782645043
112 0.0
113 0.000297886360120
114 0.000458003489024
115 -0.000021694502247
116 0.000001285001096
117 0.000020409501151
118 0.0
119 0.0
120 0.000041596014253
121 -0.000059469114933
122 -0.000506088685305
123 0.0
124 -0.000009174493204
125 0.000095339466517
126 -0.000174599385551
127 0.000116241987937
128 0.0
129 0.000002728652054
130 -0.000004566026326
131 -0.000134623092391
132 0.000638325441221
133 0.0
134 0.000142821711673
135 -0.000188145692077
136 -0.000094084559543
137 0.000509462410792
138 0.0
139 0.000244482502566
140 -0.000033719718860
 Sym=      5.1
 Ene=     -11.3876
 Spin= Alpha
 Occup=    2.000000
1 -0.000326551946567
2 -0.000429767563691
3 0.002876042663199
4 0.0
5 0.000033283719592
6 -0.000019014731431
7 0.0
8 -0.001278257406266
9 -0.002509692035891
10 -0.000180438983558
11 0.000274591148107
12 -0.000094152164549
13 0.0
14 0.0
15 0.000148032035141
16 0.000190149178028
17 0.000325758228676
18 -0.006033574317689
19 0.0
20 0.000049846059644
21 -0.000000162396325
22 0.0
23 0.002361990839583
24 -0.001345172693630
25 0.000109691221201
26 -0.000116904580667
27 0.000007213359466
28 0.0
29 0.0