[Molden Format]
[Molpro variables]
_NUMVAR=  784.0000000000000    
_AVOGAD= 0.6022136736000000E+24
_BOLTZ= 0.1380658000000000E-22
_CLIGHT=  29979245800.00000    
_EV2006= 0.3674930886769165E-01
_EV= 0.3674932534394180E-01
_ENULL= 0.8854187817000000E-11
_KJOULE= 0.3808798324128737E-03
_KJOULE/MOL= 0.3808798324128737E-03
_CM= 0.4556335267302901E-05
_CM-1= 0.4556335267302901E-05
_DEB2SI= 0.3335641000000000E-29
_AMU2AU=  1822.888390000000    
_KCAL= 0.1593601117815568E-02
_KCAL/MOL= 0.1593601117815568E-02
_KELVIN2006= 0.3166828861084835E-05
_KELVIN= 0.3166814820820034E-05
_JOULE= 0.4359748200000000E-17
_HERTZ2006= 0.1519829850815779E-15
_HERTZ= 0.1519829846011223E-15
_HZ2006= 0.1519829850815779E-15
_HZ= 0.1519829846011223E-15
_JPCAL=  4.184000000000000    
_PLANCK= 0.6626075540000000E-33
_TOA2006= 0.5291772490000000    
_TOA= 0.5291772090000000    
_TOANG2006= 0.5291772490000000    
_TOANG= 0.5291772090000000    
_TORAD= 0.1745329251994330E-01
_TOCM=  219474.6306700000    
_TODEBYE=  2.541580000000000    
_TOEV2006=  27.21139610000000    
_TOE= 0.4803242000000000E-09
_TOEV=  27.21138390000000    
_TOHERTZ2006=  6579683899900000.    
_TOHERTZ=  6579683920700000.    
_TOHZ2006=  6579683899900000.    
_TOHZ=  6579683920700000.    
_TOK2006=  315773.3000000000    
_TOK=  315774.7000000000    
_TOKCAL=  627.5096000000000    
_TOKELVIN2006=  315773.3000000000    
_TOKELVIN=  315774.7000000000    
_TOKJ=  2625.500000000000    
_TOKJOULE=  2625.500000000000    
_TOKG= 0.1660565586000000E-26
_ANG2006=  1.889725988578923    
_ANG=  1.889726131421507    
_ANGSTROM2006=  1.889725988578923    
_ANGSTROM=  1.889726131421507    
_RPAREF=  0.000000000000000    
_RPADISS=  0.000000000000000    
_IGNORE_UNDEF=  2.000000000000000    
_STRICTCHECK=  0.000000000000000    
_SEW_ONEEL=  0.000000000000000    
_CPPDONE=FALSE
_DKROLL_DONE=  0.000000000000000    
_FOCKDONE=TRUE
_GRADONE=FALSE
_HESSDONE=FALSE
_INTDONE=TRUE
_SCFDONE=TRUE
_MODUL_BLOCK=FALSE
_MODUL_CUDA=FALSE
_MODUL_SLATER=FALSE
_MODUL_MRCC=FALSE
_MODUL_NBO6=FALSE
_MODUL_NECI=TRUE
_MODUL_AIMS=TRUE
_MRCC_EXEC=
_FITC_AO_SAVED=FALSE
_FITC_MO_SAVED=FALSE
_SHARED_FS=TRUE
_LSTYP=SEWARD
_INTYP=INTS
_GEOMTYP=ZMAT
_GRADTYP=ALASKA
_DIRECT=FALSE
_DKHO= -1.000000000000000    
_SYNCM=  0.000000000000000    
_BASIS=USERDEF
_ZORIENT=  1.000000000000000    
_NELEC=  24.00000000000000    
!SPIN=  0.000000000000000    
_QSDSTEP=  0.000000000000000    
_QSDIRC=  0.000000000000000    
_PROGRAM=HF-SCF
_CPUSTEP=  3.100000000000000    
_SYSSTEP= 0.3000000000000000E-01
_WALLSTEP=  1.020000000000000    
!DFSCF=  0.000000000000000    
!SCSGRD=  0.000000000000000    
_BASINP=  610.0000000000000    
_CPUTOT=  3.440000000000000    
_CPUSORT= 0.3999999999999998E-01
_SYSSORT= 0.7999999999999999E-01
_WALLSORT= 0.1799999997019768    
_DFTEXFAC=  1.000000000000000    
_DMX= 0.6154468794775039    
_DMY= 0.7585924449239556E-02
_DMZ=-0.7341826264555249    
_DMX_SCF= 0.6154468794775039    
_DMY_SCF= 0.7585924449239556E-02
_DMZ_SCF=-0.7341826264555249    
_EHOMO=-0.4868765751535048    
_ELUMO=-0.3721539544669929E-01
_ENERGY= -204.3620399510006    
_ENUC=  58.85249957685418    
_EPS1= -20.65559215059532    
_GRADEXFAC=  9999.000000000000    
_GRADMETHOD=  1.000000000000000    
_NMRMETHOD=  0.000000000000000    
!GRID_FREEZE= -1.000000000000000    
_ITERATIONS=  23.00000000000000    
_LASTNELEC=  24.00000000000000    
_LASTSPIN=  0.000000000000000    
_LASTSYM=  1.000000000000000    
_MPP_PROG=  0.000000000000000    
_NPROC_MPP=  1.000000000000000    
_NPROC_MPPX=  1.000000000000000    
_NPROC_SMP=  16.00000000000000    
_NUMSTEP=  0.000000000000000    
_ORBITAL=  2100.200000000000    
_PI=  3.141592653589793    
_SEIG_MIN= 0.2424771728836001E-01
_SEWPROP=TRUE
_STATUS=  1.000000000000000    
_SYSTOT= 0.1800000000000000    
_VERSION=  2012001.000000000    
_WALLTOT=  2.890000000000000    
_DATE=24-Jan-19
_LASTORB=RHF
_MACHINE=Linux-4.9.0-8-amd64/nympha18.meta.zcu.cz(x86_64) (16 PROC) 64 bit serial version
_OUTPUT=/auto/brno2/home/masiz4am/git/UKRmol-in/tests/suite/C1_target_HF3/molpro.xml
_PGROUP=C1
_TIME=16:16:01
_LIBMOL=/afs/ics.muni.cz/software/molpro-2012.1/molprop_2012_1_Linux_x86_64_i8/lib/
!VIBCNT=  0.000000000000000    
!RGHFCNT=  0.000000000000000    
!SURFREC=  0.000000000000000    
!POLYREC=  0.000000000000000    
!DIPREC=  0.000000000000000    
!VSCFREC=  0.000000000000000    
!VCIREC=  0.000000000000000    
!PVCIREC=  0.000000000000000    
!VMP2REC=  0.000000000000000    
!VMCSCFREC=  0.000000000000000    
!VMRCIREC=  0.000000000000000    
!VIBINFO=  0.000000000000000    
!GAREC=  0.000000000000000    
!SCFORB=  21002.00000000000    
!NEWMOL= -1.000000000000000    
!NEWSYM= -1.000000000000000    
_SLFILES=slscratch
_NGSSTO=  9.000000000000000    
_SIN=SIN
_COS=COS
_TAN=TAN
_ACOS=ACOS
_ASIN=ASIN
_ATAN=ATAN
_COSH=COSH
_SINH=SINH
_TANH=TANH
_ABS=ABS
_MOD=MOD
_ERF=ERF
_REFC=REFC
_ERFC=ERFC
_HYPOT=HYPOT
_J0=J0
_J1=J1
_JN=JN
_GAMMA=GAMMA
_LGAMMA=LGAMMA
_Y0=Y0
_Y1=Y1
_YN=YN
_EXP=EXP
_LOG=LOG
_LOG10=LOG10
_SQRT=SQRT
_INT=INT
_NINT=NINT
_MAX=MAX
_MIN=MIN
_COSMO=  0.000000000000000    
_COSMOIT=  0.000000000000000    
_COSMOES=  0.000000000000000    
_COSMOEDS=  0.000000000000000    
_COSMOEC=  0.000000000000000    
_COSMOEDCORR=  0.000000000000000    
_FEPSI=  1.000000000000000    
_SL_IsMM=  0.000000000000000    
_SL_NSYM=  1.000000000000000    
_SL_System_BitSw=  0.000000000000000    
_SL_Unique_atoms=  0.000000000000000    
_SL_GRAD=  0.000000000000000    
_SL_MAXUPD_Hess=  5.000000000000000    
_SL_N_PRINT_COD=  5.000000000000000    
_SL_PRINT_CODES=  0.000000000000000    
_SL_BasType=  0.000000000000000    
_SL_Energy_Pred=  0.000000000000000    
_SL_New_Coords=  0.000000000000000    
_SL_Total_Nuclea=  0.000000000000000    
_SL_Highest_Mltp=  0.000000000000000    
_SL_Ref_Geom=  0.000000000000000    
_SL_Symmetry_ope=  1.000000000000000    
_SL_agrad=  0.000000000000000    
_SL_GrdMax=  0.000000000000000    
_SL_GrdNorm=  0.000000000000000    
_SL_GrdRMS=  0.000000000000000    
!LATTICE= -1.000000000000000    
!NEWLATTICE=  0.000000000000000    
!LATGRAD_VAR=FALSE
!SEW_LATTICE=  1.000000000000000    
!LOCAL=  0.000000000000000    
!SAVEDOM= -1.000000000000000    
!RESTDOM= -1.000000000000000    
!SAVEDOM_HF= -1.000000000000000    
!RESTDOM_HF= -1.000000000000000    
!HESSREC=  0.000000000000000    
!FREQREC=  0.000000000000000    
!NMODREC=  0.000000000000000    
!GTASKS=  0.000000000000000    
!HTASKS=  0.000000000000000    
!THRCHG= 0.1000000000000000    
!DEBUG= -1.000000000000000    
!CFIT_CPHF=  0.000000000000000    
!RDOMAUX_CPHF=  3.000000000000000    
!THRAO_CPHF= 0.1000000000000000E-09
!THRMO_CPHF= 0.1000000000000000E-08
!THROV_CPHF= 0.1000000000000000E-11
!THRSW_CPHF= 0.1000000000000000E-09
!THRPROD_CPHF= 0.1000000000000000E-08
!THRAOPR_CPHF= 0.1000000000000000E-11
!CFIT_SCFGRD=  0.000000000000000    
!RDOMAUX_SCFGRD=  5.000000000000000    
!THRAO_SCFGRD= 0.1000000000000000E-09
!THRMO_SCFGRD= 0.1000000000000000E-08
!THROV_SCFGRD= 0.1000000000000000E-11
!THRSW_SCFGRD= 0.1000000000000000E-09
!THRPROD_SCFGRD= 0.1000000000000000E-08
!THRAOPR_SCFGRD= 0.1000000000000000E-11
!LOCFIT_SCF=  0.000000000000000    
!LOCFIT_MP2= -1.000000000000000    
_RIDOM=  0.000000000000000    
!CC2_METHOD=  0.000000000000000    
_BASIS2006=FALSE
_SVDDEL= -1.000000000000000    
_SVDDELA= -1.000000000000000    
_SVDDELP= -1.000000000000000    
_SVDDELF= -1.000000000000000    
_SVDDELS= -1.000000000000000    
_SVDDEL_ABS= -1.000000000000000    
_SVDDELA_ABS= -1.000000000000000    
_SVDDELP_ABS= -1.000000000000000    
_SVDDELF_ABS= -1.000000000000000    
_SVDDELS_ABS= -1.000000000000000    
_MAXBASIS=  0.000000000000000    
!OPT_CONICAL=  0.000000000000000    
!CLEARSP_JGRID=  0.000000000000000    
_4EXT_NDISKS=  1.000000000000000    
!ZMP=  0.000000000000000    
_MAXIT_ZMP=  500.0000000000000    
_MAXDIS_ZMP=  100.0000000000000    
_ACCU_ZMP=  14.00000000000000    
_SHIFTA_ZMP= -100.0000000000000    
!EMBEDFLAG=  1.000000000000000    
!EMBED=FALSE
!EMBED_F12=FALSE
!EMBEDNUC=  0.000000000000000    
_EMBEDENERGY=  0.000000000000000    
_KSPACETIME=  0.000000000000000    
_RSPACETIME=  0.000000000000000    
!EMBED_DFC=FALSE
!NUM_VOIDS=  0.000000000000000    
_IBODY=  0.000000000000000    
_EMBE_TOTAL=  0.000000000000000    
_EMBE_HF=  0.000000000000000    
_EMBE_CORR=  0.000000000000000    
!EDFT=  0.000000000000000    
_IFASTLATGRAD=  0.000000000000000    
_SINDEX=  0.000000000000000    
GX1= 0.4610931400000000E-01
GY1=-0.8885491599999999    
GZ1=-0.2073029410000000    
GX2=-0.1965315030000000    
GY2= 0.6211529320000000    
GZ2=  2.519949606000000    
GX3=-0.5291232800000000E-01
GY3=  1.048797924000000    
GZ3= -2.400518923000000    
GX4=  1.211503331000000    
GY4=  1.747051676000000    
GZ4= -2.567003783000000    
[Atoms] Angs
N     1    7         0.0243999981       -0.4701999645       -0.1096999917
O     2    8        -0.1039999922        0.3286999749        1.3334998993
O     3    8        -0.0279999981        0.5549999582       -1.2702999038
H     4    1         0.6410999514        0.9244999299       -1.3583998974
[GTO]
  1 0
 s    8  1.00
  0.9046000000D+04  0.6996174134D-03
  0.1357000000D+04  0.5386054630D-02
  0.3093000000D+03  0.2739102119D-01
  0.8773000000D+02  0.1031505920D+00
  0.2856000000D+02  0.2785706633D+00
  0.1021000000D+02  0.4482948495D+00
  0.3838000000D+01  0.2780859284D+00
  0.7466000000D+00  0.1543156123D-01
 s    8  1.00
  0.9046000000D+04 -0.3049900960D-03
  0.1357000000D+04 -0.2408026379D-02
  0.3093000000D+03 -0.1194444873D-01
  0.8773000000D+02 -0.4892599291D-01
  0.2856000000D+02 -0.1344727247D+00
  0.1021000000D+02 -0.3151125777D+00
  0.3838000000D+01 -0.2428578325D+00
  0.7466000000D+00  0.1094382207D+01
 s    1  1.00
  0.2248000000D+00  0.1000000000D+01
 p    3  1.00
  0.1355000000D+02  0.5890567677D-01
  0.2917000000D+01  0.3204611067D+00
  0.7973000000D+00  0.7530420618D+00
 p    1  1.00
  0.2185000000D+00  0.1000000000D+01
 d    1  1.00
  0.8170000000D+00  0.1000000000D+01
  
  2 0
 s    8  1.00
  0.1172000000D+05  0.7096459465D-03
  0.1759000000D+04  0.5467272292D-02
  0.4008000000D+03  0.2782311861D-01
  0.1137000000D+03  0.1047477397D+00
  0.3703000000D+02  0.2829208464D+00
  0.1327000000D+02  0.4484952387D+00
  0.5025000000D+01  0.2708168852D+00
  0.1013000000D+01  0.1545029161D-01
 s    8  1.00
  0.1172000000D+05 -0.3144434117D-03
  0.1759000000D+04 -0.2482137681D-02
  0.4008000000D+03 -0.1231635538D-01
  0.1137000000D+03 -0.5053891734D-01
  0.3703000000D+02 -0.1393849033D+00
  0.1327000000D+02 -0.3250774948D+00
  0.5025000000D+01 -0.2298483076D+00
  0.1013000000D+01  0.1095379347D+01
 s    1  1.00
  0.3023000000D+00  0.1000000000D+01
 p    3  1.00
  0.1770000000D+02  0.6267916628D-01
  0.3854000000D+01  0.3335365659D+00
  0.1046000000D+01  0.7412396416D+00
 p    1  1.00
  0.2753000000D+00  0.1000000000D+01
 d    1  1.00
  0.1185000000D+01  0.1000000000D+01
  
  3 0
 s    8  1.00
  0.1172000000D+05  0.7096459465D-03
  0.1759000000D+04  0.5467272292D-02
  0.4008000000D+03  0.2782311861D-01
  0.1137000000D+03  0.1047477397D+00
  0.3703000000D+02  0.2829208464D+00
  0.1327000000D+02  0.4484952387D+00
  0.5025000000D+01  0.2708168852D+00
  0.1013000000D+01  0.1545029161D-01
 s    8  1.00
  0.1172000000D+05 -0.3144434117D-03
  0.1759000000D+04 -0.2482137681D-02
  0.4008000000D+03 -0.1231635538D-01
  0.1137000000D+03 -0.5053891734D-01
  0.3703000000D+02 -0.1393849033D+00
  0.1327000000D+02 -0.3250774948D+00
  0.5025000000D+01 -0.2298483076D+00
  0.1013000000D+01  0.1095379347D+01
 s    1  1.00
  0.3023000000D+00  0.1000000000D+01
 p    3  1.00
  0.1770000000D+02  0.6267916628D-01
  0.3854000000D+01  0.3335365659D+00
  0.1046000000D+01  0.7412396416D+00
 p    1  1.00
  0.2753000000D+00  0.1000000000D+01
 d    1  1.00
  0.1185000000D+01  0.1000000000D+01
  
  4 0
 s    3  1.00
  0.1301000000D+02  0.3349872639D-01
  0.1962000000D+01  0.2348008012D+00
  0.4446000000D+00  0.8136829579D+00
 s    1  1.00
  0.1220000000D+00  0.1000000000D+01
 p    1  1.00
  0.7270000000D+00  0.1000000000D+01
 
 
[MO]
 Sym=      1.1
 Ene=     -20.6556
 Spin= Alpha
 Occup=    2.000000
1 -0.000116021268772
2 -0.000215900591446
3 0.001313127699502
4 0.000006770368307
5 0.000119129090833
6 -0.000149368844237
7 -0.000017111256359
8 0.000689141789285
9 -0.000614668538669
10 -0.000081073382996
11 0.000039665316784
12 0.000041408066211
13 0.000013131293677
14 -0.000024975833788
15 -0.000102664876258
16 -0.012645067457429
17 0.000024092287277
18 -0.000089942140727
19 0.000000110322779
20 0.000009710742898
21 0.000042254450313
22 -0.000014899287223
23 -0.000044858060704
24 0.000095774028519
25 0.000006506017330
26 0.000032299980473
27 -0.000038805997803
28 -0.000003359676390
29 0.000003842401370
30 0.000000028204811
31 1.00132751946951
32 0.002172803017678
33 -0.003370694991125
34 0.002024756661417
35 0.000342391401110
36 0.000660523782818
37 -0.000129822689181
38 0.000839031768642
39 -0.001047786278959
40 0.000473165364195
41 -0.000092369745625
42 -0.000380795618570
43 0.000438957426615
44 -0.000161384830726
45 0.000274335383217
46 -0.001639172727786
47 0.000502627802537
48 0.001314900927507
49 0.000642379066303
50 -0.000080952600591
 Sym=      2.1
 Ene=     -20.6549
 Spin= Alpha
 Occup=    2.000000
1 -0.000186433064364
2 -0.000334625119778
3 0.001400927159416
4 0.000000948985907
5 0.000060769154469
6 0.000104654385104
7 -0.000089410742509
8 0.000581518558287
9 0.000874517952929
10 -0.000115340821332
11 -0.000017769213447
12 0.000133110034779
13 -0.000017181560416
14 -0.000021320678780
15 0.000150794990952
16 1.00056890240464
17 0.000132756683032
18 -0.003660214867265
19 0.000097993034936
20 -0.000452340064761
21 -0.000872085491782
22 -0.000109298443876
23 0.000602706791861
24 0.001139898258085
25 0.000136214421172
26 0.000196951501751
27 -0.000333165922923
28 0.000077588136213
29 0.000141424333572
30 -0.000429985152207
31 0.012688055199643
32 0.000047407111651
33 -0.000224956259307
34 0.000031121401004
35 0.000018457877432
36 -0.000032565847774
37 -0.000016594254564
38 -0.000072145672564
39 -0.000084794342220
40 0.000018255242045
41 0.000028273159678
42 -0.000046528401723
43 -0.000002849479207
44 0.000007633404441
45 0.000024579783240
46 -0.000033596563221
47 0.000133317830281
48 -0.000015334478185
49 0.000022017505604
50 -0.000028634904529
 Sym=      3.1
 Ene=     -15.8554
 Spin= Alpha
 Occup=    2.000000
1 1.00064439934416
2 -0.000242991720045
3 -0.004262174125362
4 0.000004394533551
5 0.001638651618548
6 -0.000295514618425
7 0.000058659685858
8 -0.001581192545304
9 0.000166085317971
10 -0.000244769928866
11 0.000230468933845
12 0.000014300995021
13 0.000130092264299
14 0.000034316505665
15 0.000187371299020
16 -0.000165326488465
17 -0.000207703819232
18 0.000991458690539
19 0.000011213725299
20 -0.000099910751626
21 -0.000118041121466
22 0.000031786822734
23 -0.000089702006770
24 -0.000576596944362
25 0.000021878225184
26 -0.000053634638302
27 0.000031756413118
28 0.000003966217189
29 0.000002221519183
30 -0.000028964922799
31 -0.000099768106677
32 -0.000056823342497
33 0.000640809483521
34 -0.000017530679167
35 -0.000143754361717
36 0.000125381753344
37 -0.000203076338953
38 -0.000331240813582
39 0.000568617710002
40 0.000014307443631
41 -0.000033329718919
42 0.000019022275288
43 -0.000009682322261
44 -0.000011509758404
45 0.000087390866595
46 0.000098569697035
47 0.000589465516353
48 -0.000104817560488
49 -0.000170237758157
50 0.000083297339471
 Sym=      4.1
 Ene=      -1.4887
 Spin= Alpha
 Occup=    2.000000
1 -0.000816020752745
2 0.14285079029403
3 0.11567798161722
4 0.003438922597114
5 0.057163778322956
6 -0.047461513779963
7 0.010545391827206
8 0.024599339671174
9 -0.013979894383299
10 -0.011385477906395
11 0.005322200957214
12 0.006063276949181
13 0.002587067380341
14 -0.003057019250873
15 -0.014516155192551
16 -0.000825593282394
17 0.045855503893050
18 0.044230342001902
19 0.000584593733354
20 -0.004007453571249
21 -0.013701839477723
22 -0.000916559058598
23 -0.002163985255231
24 -0.004908108907308
25 -0.001284828601547
26 -0.000722966744592
27 0.002007795346139
28 -0.000034230979469
29 -0.000147973015580
30 0.001729117436172
31 -0.012519549225926
32 0.41643859032547
33 0.32993299764439
34 0.10206066836874
35 0.023548034262404
36 0.024796182916103
37 -0.018367271318723
38 -0.026643394213791
39 0.018931121276611
40 0.005261425630523
41 -0.001913792199948
42 -0.003347633430575
43 0.007785771566978
44 -0.000125784781735
45 -0.007904023001611
46 0.27373295512396
47 -0.004190957519794
48 -0.040837704761898
49 -0.024352394288665
50 0.007133693866380
 Sym=      5.1
 Ene=      -1.2854
 Spin= Alpha
 Occup=    2.000000
1 0.002460480647905
2 0.20002789040551
3 0.18233844189298
4 -0.001897825045437
5 0.039368140889894
6 0.083191916594300
7 -0.002449455544025
8 0.019422893980223
9 0.031942247488493
10 -0.007074812273825
11 -0.000947447816757
12 0.008022260090582
13 -0.001318720009634
14 -0.000255065817334
15 0.012678822811229
16 -0.003415189605914
17 0.42140588622355
18 0.46227908278097
19 -0.000055977578350
20 -0.019426765722017
21 -0.034452844633743
22 0.001302541928949
23 -0.011666928526403
24 -0.020632377508990
25 -0.003831801160989
26 -0.001244332287810
27 0.005076133448799
28 -0.000252301822105
29 -0.000484119642671
30 0.005854174816672
31 0.002143052232887
32 -0.10139041108384
33 -0.082023305703139
34 -0.042765468706696
35 -0.039119242959180
36 0.034278389395607
37 0.004646548470437
38 -0.003029348590976
39 0.009190070994465
40 -0.005154778185335
41 0.000391535433962
42 0.004763242751373
43 -0.003762283267540
44 0.001308923376232
45 -0.002754657982856
46 -0.098912058300849
47 -0.003617858325551
48 0.013425496864149
49 0.007619584763790
50 -0.000853525554878
 Sym=      6.1
 Ene=      -1.0543
 Spin= Alpha
 Occup=    2.000000
1 -0.013473121760050
2 -0.42101746915756
3 -0.41140949623726
4 0.002685831409004
5 0.010857195651330
6 0.072018885594686
7 0.001497854052870
8 0.002789725575022
9 0.034148299149131
10 0.007983678569365
11 -0.002174205951615
12 -0.005809472617750
13 0.001291758100667
14 -0.002348401380680
15 0.009858442427085
16 0.000724717936653
17 0.23957245584152
18 0.29889175872160
19 -0.000202220366268
20 0.030833941288380
21 0.060591241520347
22 -0.000808628515904
23 0.015456374469852
24 0.025723688901380
25 0.002826653368935
26 0.001790566129011
27 -0.004617219497946
28 0.000738450297165
29 0.001193179428512
30 -0.005452699147199
31 -0.000837178978828
32 0.081466146192218
33 0.032022111463263
34 0.10941723791953
35 0.16082653373063
36 -0.11471247087388
37 0.004953745114373
38 0.052299294783015
39 -0.048662024923283
40 0.012911493656636
41 -0.003371036384673
42 -0.009540457271963
43 0.009175449327107
44 -0.003691017393612
45 0.012361957668512
46 0.19950973738852
47 0.020051718216410
48 -0.024783720704958
49 -0.011224408077273
50 0.000698416811001
 Sym=      7.1
 Ene=      -0.7677
 Spin= Alpha
 Occup=    2.000000
1 0.007208023716243
2 0.16269112046213
3 0.20532140743715
4 0.057866373271806
5 -0.10990277303517
6 0.17061140586477
7 0.049718892047306
8 -0.051449122773751
9 0.086285360304817
10 0.006061476047955
11 -0.002428973485832
12 -0.003632502562123
13 0.010718133320782
14 -0.009020283661264
15 0.020356358376294
16 -0.001016598985519
17 -0.072995585735914
18 -0.11214212079733
19 0.020659669987934
20 -0.074816895505336
21 -0.054297234836235
22 0.013079042840561
23 -0.043298425078767
24 -0.031133611226081
25 -0.003120777314728
26 -0.000082777434900
27 0.003203554749627
28 -0.001165437594180
29 -0.002096811052053
30 0.006861220938900
31 0.000074385914472
32 -0.14640315294385
33 -0.34849891938003
34 0.42655411178310
35 0.22673155945199
36 -0.025743377729535
37 0.19685703831087
38 0.10115610571205
39 -0.009842743186628
40 0.020754476360724
41 -0.007885231233230
42 -0.012869245127494
43 0.011335237055227
44 0.004027539503872
45 0.006745341391336
46 0.33506231957612
47 0.018591669878859
48 -0.023410303621227
49 -0.017336329750787
50 0.008679908157218
 Sym=      8.1
 Ene=      -0.6449
 Spin= Alpha
 Occup=    2.000000
1 0.006276791088445
2 0.060614450805244
3 0.074596789820287
4 -0.007722530792026
5 -0.34567330870424
6 -0.096579860933723
7 -0.003600418983432
8 -0.22054522020585
9 -0.066856762335089
10 0.012541789446337
11 -0.021571070679268
12 0.009029281232931
13 0.001232414013294
14 -0.000972854908720
15 0.002498840377401
16 0.000305076317784
17 0.053769823574965
18 0.10256186666665
19 0.004692375479601
20 -0.089726419377985
21 0.16843694368791
22 0.003063890573812
23 -0.065587237039499
24 0.10491287575860
25 0.004228334093587
26 0.005254482867203
27 -0.009482816960790
28 0.000242459720299
29 0.001341146082072
30 -0.002649118201235
31 0.000854738601625
32 0.028531250799543
33 0.043108089935404
34 0.056360804644908
35 -0.24082947777297
36 -0.40052612559857
37 0.034008051849271
38 -0.17127916027438
39 -0.27089242795686
40 0.007001104793982
41 0.005825097994480
42 -0.012826202788462
43 -0.006208063875100
44 -0.010019204257556
45 0.000812023243703
46 0.006064407079838
47 0.017616018069529
48 0.002934892154907
49 -0.015224897957887
50 -0.022805379695409
 Sym=      9.1
 Ene=      -0.6215
 Spin= Alpha
 Occup=    2.000000
1 -0.003682292790862
2 -0.059764820578060
3 -0.095908849167955
4 0.095559674302437
5 0.13455339531307
6 -0.29861626382772
7 0.081564180823465
8 0.077831016867430
9 -0.16657174677277
10 -0.007957547500506
11 0.006358501097146
12 0.001599046403361
13 0.011519901267394
14 -0.005963153966998
15 -0.029156091395336
16 0.002202643946647
17 0.065950775320427
18 0.10718294975650
19 0.071791432169747
20 0.19666093042686
21 0.062976957683578
22 0.049752983881274
23 0.12730524708951
24 0.044765144900782
25 0.005236292196833
26 -0.001108548203267
27 -0.004127743993566
28 -0.000046239487886
29 -0.001240169738683
30 -0.010078576484530
31 -0.004307925956204
32 -0.093889402943285
33 -0.15109378399168
34 0.32002637934020
35 -0.29058896393250
36 0.14481814589784
37 0.23211837618667
38 -0.20299334636329
39 0.10647009575148
40 0.004750196436718
41 -0.003885969074967
42 -0.000864227361752
43 -0.008928624236761
44 0.010992297763016
45 -0.013550927108032
46 0.035357953766028
47 -0.012793378840133
48 0.010999399736830
49 -0.020178624870253
50 0.007268124417472
 Sym=     10.1
 Ene=      -0.5170
 Spin= Alpha
 Occup=    2.000000
1 -0.004595489421624
2 -0.035139555033640
3 -0.038014375939390
4 0.051658691747896
5 0.27382582474167
6 0.27752264585113
7 0.039259839878733
8 0.19384284805968
9 0.15578420848164
10 -0.008858654307247
11 -0.001176402962998
12 0.010035057270245
13 0.002119954566542
14 -0.002390569538813
15 0.022970494887163
16 -0.002059443686773
17 -0.065476981590612
18 -0.12685621091444
19 0.005881268648579
20 0.10598460813388
21 -0.32677683221564
22 0.006412451955909
23 0.072343041956419
24 -0.23176220847730
25 -0.007506582160924
26 -0.006228586399759
27 0.013735168560683
28 -0.001370898365788
29 -0.003323346063240
30 0.010430136167174
31 0.001069815138239
32 0.019023563744199
33 0.032579748993904
34 0.050296261379915
35 -0.27070002386314
36 -0.32544638203286
37 0.046212682028539
38 -0.19469955166995
39 -0.25421436343602
40 0.003853522714153
41 -0.004068469817959
42 0.000214947103806
43 -0.008461286116140
44 -0.006870141079081
45 0.000146173711386
46 -0.034430404278848
47 0.003717226965254
48 0.007318080056008
49 -0.016455662483271
50 -0.018209309050371
 Sym=     11.1
 Ene=      -0.5037
 Spin= Alpha
 Occup=    2.000000
1 0.005234536409973
2 0.073153310743210
3 0.11706334162382
4 -0.081990398829463
5 -0.25388131453375
6 -0.083743811026791
7 -0.071694316205830
8 -0.15318996361472
9 -0.076870990826126
10 0.011770893676080
11 0.004238982094462
12 -0.016009875770542
13 -0.005948009132773
14 -0.001056195694790
15 0.010313794735404
16 -0.000197236958818
17 0.021906639242562
18 0.054632877684636
19 -0.10715269796386
20 0.54006150401640
21 -0.19296236462181
22 -0.082792158262828
23 0.39278575281447
24 -0.14728616968273
25 0.002566068211009
26 -0.003170504613733
27 0.000604436402724
28 0.002647320019679
29 0.003798947441251
30 -0.007875653240782
31 0.002306165769790
32 -0.011789316597970
33 -0.063666066460450
34 -0.038515595334319
35 0.14784530380990
36 -0.067280720237857
37 -0.048471565089046
38 0.11588241217711
39 -0.042669046764820
40 0.000719506018404
41 0.003390096196396
42 -0.004109602214800
43 0.005732089537212
44 -0.004254018959129
45 0.005463360353138
46 0.044502295146686
47 0.032599120349748
48 -0.008428952040382
49 0.004433189500230
50 -0.002841645483643
 Sym=     12.1
 Ene=      -0.4869
 Spin= Alpha
 Occup=    2.000000
1 0.001417451925624
2 0.030406663196796
3 0.058852853940696
4 0.18563263948088
5 -0.055575286490152
6 0.049218513048285
7 0.17161085971195
8 -0.031110381825699
9 0.033734730120992
10 0.002740540149530
11 0.001021489352672
12 -0.003762029502202
13 0.011922085589734
14 0.019892122610529
15 0.006157413583192
16 -0.000302980626321
17 -0.008246058755227
18 -0.013858742198918
19 0.54995289659375
20 0.12898578276816
21 0.042975000440434
22 0.42923145420085
23 0.097428569138269
24 0.032254447314078
25 0.002203570445005
26 -0.000694282552578
27 -0.001509287892427
28 -0.006681995361214
29 -0.012581627024562
30 -0.001638172160846
31 0.001274686035344
32 0.025844475910405
33 0.044978625879116
34 -0.12943281034093
35 0.086550586811294
36 -0.036335362105728
37 -0.10211081682546
38 0.067160116363767
39 -0.026736305945989
40 -0.003924794673639
41 0.002418706922012
42 0.001506087751628
43 -0.000993250090544
44 0.000080069441787
45 0.003613281979796
46 -0.039990124465629
47 0.020462280499182
48 -0.004300119536550
49 0.006836299933276
50 -0.000493474971554
 Sym=     13.1
 Ene=      -0.0372
 Spin= Alpha
 Occup=    0.000000
1 -0.002699967657225
2 0.004287475913531
3 0.045780045737004
4 0.53615258549620
5 -0.012848049154741
6 -0.000921694062247
7 0.53662186842027
8 -0.007882390153879
9 -0.008521635293299
10 0.005480590961828
11 -0.000737324899412
12 -0.004743266062416
13 0.007338822051732
14 -0.008377908838840
15 -0.001047274326867
16 -0.000119751456329
17 0.004783843263012
18 0.016988887343022
19 -0.29507969950129
20 0.012777036238303
21 0.022736982957422
22 -0.27179987846885
23 0.012403766486831
24 0.021635917453048
25 0.002107385953306
26 0.000287866817213
27 -0.002395252770520
28 -0.003262736259070
29 -0.005706466704120
30 -0.002281260964271
31 -0.000750940209521
32 0.016505020110954
33 0.048521283593142
34 -0.13186319762057
35 0.059134880571370
36 -0.020010861449812
37 -0.10607736247024
38 0.066382010908746
39 -0.023439190471613
40 -0.005266696979525
41 0.002996482358523
42 0.002270214621001
43 -0.010181692862885
44 0.008238310275322
45 0.001493289643781
46 -0.089021610650548
47 0.033190549484557
48 -0.003954384055497
49 0.001206536742926
50 0.004386663518728
 Sym=     14.1
 Ene=       0.1471
 Spin= Alpha
 Occup=    0.000000
1 0.018380421938692
2 0.21641411179092
3 0.41833462451867
4 -0.056256174774725
5 0.40071566541829
6 -0.061986438372874
7 -0.095719978428495
8 0.46967619232604
9 -0.059414015166836
10 0.016895235678683
11 0.005226112665886
12 -0.022121348344569
13 0.000945818862101
14 0.001696042904163
15 0.000858271733302
16 0.002846212491930
17 -0.057317453601701
18 -0.17762414121406
19 -0.031391954505531
20 0.081048256309455
21 0.32547396402213
22 -0.042683995510388
23 0.11547443603108
24 0.40102071301591
25 -0.000577159581407
26 -0.005454878303512
27 0.006032037884919
28 0.001285941621864
29 0.000440157114066
30 -0.000870919758746
31 0.017770767128892
32 -0.11517725591802
33 -0.64445089925781
34 -0.061328222543760
35 0.14681214652522
36 -0.26392622357159
37 -0.11883226395873
38 0.16678779344100
39 -0.33561554618452
40 -0.010650794521707
41 0.000327493403641
42 0.010323301118066
43 0.000543232956570
44 -0.006578457738073
45 -0.011691205454415
46 0.057755623154565
47 0.50172167956586
48 -0.019446517238703
49 0.004853983643189
50 -0.022601842123465
 Sym=     15.1
 Ene=       0.1755
 Spin= Alpha
 Occup=    0.000000
1 0.001752461716459
2 0.078882901355759
3 0.26164002407142
4 -0.007854907110276
5 0.033721287355598
6 0.40107157485420
7 -0.017209053284198
8 0.097666004377665
9 0.46967264821621
10 0.004282371238246
11 0.007955231790964
12 -0.012237603029210
13 0.000476713412727
14 0.002483690605727
15 -0.020927178806430
16 0.004261731100445
17 -0.066925203402118
18 -0.24197145396555
19 -0.045514818917103
20 0.22878224514306
21 0.30775088658745
22 -0.065284340763435
23 0.27522521355083
24 0.41423394167956
25 -0.002584733488586
26 0.002257568229216
27 0.000327165259370
28 -0.000964124416387
29 0.000104452140253
30 0.006293189356227
31 -0.018458704111650
32 0.085614282791296
33 0.66174652487749
34 0.094503951885651
35 -0.080643018842266
36 0.040860934081605
37 0.18722732837689
38 -0.034637113983390
39 0.025099196019117
40 0.011526202020805
41 -0.010838496777345
42 -0.000687705243461
43 0.006385979705117
44 -0.000657054488068
45 0.002857068835678
46 -0.043568613862059
47 -0.86602491692961
48 0.028760358281297
49 -0.001741309134106
50 0.005852712280221
 Sym=     16.1
 Ene=       0.2334
 Spin= Alpha
 Occup=    0.000000
1 -0.002557111116713
2 -0.092740154748622
3 -0.37447609359402
4 -0.038176912920220
5 -0.14612261407402
6 0.33220684474829
7 -0.034178922133413
8 -0.30937722581843
9 0.54176490572598
10 0.004395347346238
11 0.000912602902129
12 -0.005307950248366
13 0.000644213845903
14 0.001081966698933
15 -0.012131099206961
16 -0.004236568979096
17 -0.055128785075338
18 -0.12195169108471
19 -0.028043437713863
20 0.085829842642124
21 0.10291241621270
22 -0.033129521342356
23 0.12937103358171
24 0.14358357964069
25 -0.001494093446330
26 0.004375777308871
27 -0.002881683862541
28 0.000353515486198
29 -0.000104007157595
30 0.001449510491388
31 0.018127972881572
32 0.023425531660013
33 -0.38829572154069
34 -0.086334345690015
35 -0.25686876331219
36 0.21172623996566
37 -0.20850839313412
38 -0.47836298165432
39 0.39519975844833
40 -0.003490937985370
41 -0.004924666883152
42 0.008415604868522
43 -0.016504912403667
44 0.007121939524782
45 0.013523362985581
46 0.005315846849869
47 1.33960678249844
48 -0.022080987715745
49 -0.027538925920148