[Molden Format]
[Molpro variables]
_NUMVAR=  694.0000000000000    
_PATCHLEVEL=  694.0000000000000    
_EV2006= 0.3674930886769165E-01
_EV= 0.3674932534394180E-01
_KJOULE= 0.3808798324128737E-03
_KJOULE/MOL= 0.3808798324128737E-03
_CM= 0.4556335267302901E-05
_CM-1= 0.4556335267302901E-05
_KCAL= 0.1593601117815568E-02
_KCAL/MOL= 0.1593601117815568E-02
_KELVIN2006= 0.3166828861084835E-05
_KELVIN= 0.3166814820820034E-05
_HERTZ2006= 0.1519829850815779E-15
_HERTZ= 0.1519829846011223E-15
_HZ2006= 0.1519829850815779E-15
_HZ= 0.1519829846011223E-15
_TOA2006= 0.5291772490000000    
_TOA= 0.5291772090000000    
_TOANG2006= 0.5291772490000000    
_TOANG= 0.5291772090000000    
_TORAD= 0.1745329251994330E-01
_TOCM=  219474.6306700000    
_TODEBYE=  2.541580000000000    
_TOEV2006=  27.21139610000000    
_TOEV=  27.21138390000000    
_TOHERTZ2006=  6579683899900000.    
_TOHERTZ=  6579683920700000.    
_TOHZ2006=  6579683899900000.    
_TOHZ=  6579683920700000.    
_TOK2006=  315773.3000000000    
_TOK=  315774.7000000000    
_TOKCAL=  627.5096000000000    
_TOKELVIN2006=  315773.3000000000    
_TOKELVIN=  315774.7000000000    
_TOKJ=  2625.500000000000    
_TOKJOULE=  2625.500000000000    
_ANG2006=  1.889725988578923    
_ANG=  1.889726131421507    
_ANGSTROM2006=  1.889725988578923    
_ANGSTROM=  1.889726131421507    
_IGNORE_UNDEF=  2.000000000000000    
_STRICTCHECK=  0.000000000000000    
_SEW_ONEEL=  0.000000000000000    
_CPPDONE=FALSE
_DKROLL_DONE=  0.000000000000000    
_FOCKDONE=TRUE
_GRADONE=FALSE
_HESSDONE=FALSE
_INTDONE=TRUE
_SCFDONE=TRUE
_MODUL_CUDA=FALSE
_MODUL_SLATER=FALSE
_MODUL_MRCC=FALSE
_MRCC_EXEC=
_FITC_AO_SAVED=FALSE
_FITC_MO_SAVED=FALSE
_SHARED_FS=TRUE
_LSTYP=SEWARD
_INTYP=INTS
_GEOMTYP=ZMAT
_GRADTYP=ALASKA
_DIRECT=FALSE
_DKROLL=FALSE
_DKHO=FALSE
_DKHP=FALSE
_SYNCM=  0.000000000000000    
_DFTNAME=  0.000000000000000    
_DFTFUNC=  0.000000000000000    
_BASIS=USERDEF
_BASISSETS=
_ZSIGNX=
_ZSIGNY=
_ZSIGNZ=
_ZCENTRE=
_ZSYMEL=
_ZPLANE=
_ZUNIT=
_ZORIENT=  1.000000000000000    
_CHARGE=  1.000000000000000    
_SCFCHARGE=  1.000000000000000    
_MCCHARGE=  1.000000000000000    
_CICHARGE=  1.000000000000000    
_CCCHARGE=  1.000000000000000    
_NELEC=  42.00000000000000    
!NELEC=  42.00000000000000    
_SCFNELEC=  42.00000000000000    
_MCNELEC=  42.00000000000000    
_CINELEC=  42.00000000000000    
_CCNELEC=  42.00000000000000    
_SPIN=  42.00000000000000    
!SPIN=  0.000000000000000    
_SCFSPIN=  0.000000000000000    
_MCSPIN=  0.000000000000000    
_CISPIN=  0.000000000000000    
_CCSPIN=  0.000000000000000    
_STATE=  0.000000000000000    
_SCFSTATE=  0.000000000000000    
_MCSTATE=  0.000000000000000    
_CISTATE=  0.000000000000000    
_SYMMETRY=  0.000000000000000    
!SYMMETRY=  0.000000000000000    
_SCFSYMMETRY=  0.000000000000000    
_MCSYMMETRY=  0.000000000000000    
_CISYMMETRY=  0.000000000000000    
_CCSYMMETRY=  0.000000000000000    
_SCFSYMM=  0.000000000000000    
_MCSYMM=  0.000000000000000    
_CISYMM=  0.000000000000000    
_CCSYMM=  0.000000000000000    
_SCFSYM=  0.000000000000000    
_MCSYM=  0.000000000000000    
_CISYM=  0.000000000000000    
_CCSYM=  0.000000000000000    
_WEIGHT=  0.000000000000000    
_MCWEIGHT=  0.000000000000000    
_LQUANT=  0.000000000000000    
_MCLQUANT=  0.000000000000000    
_OPTCONV=  0.000000000000000    
_QSDSTEP=  0.000000000000000    
_QSDIRC=  0.000000000000000    
_PROGRAM=HF-SCF
_CPUSTEP= 0.2300000000000000    
_SYSSTEP= 0.3000000000000000E-01
_WALLSTEP= 0.2700000000000000    
!PERT= 0.2700000000000000    
!DFMP2= 0.2700000000000000    
!DFSCF=  0.000000000000000    
!DFHFENERG=  0.000000000000000    
!SCSGRD=  0.000000000000000    
_ATCHARGE=  0.000000000000000    
_BASINP=  610.0000000000000    
_CARTESIAN=  610.0000000000000    
_CFIT=  610.0000000000000    
_CFIT_FRED=  610.0000000000000    
_CFIT_FRED_THR=  610.0000000000000    
_CHII2=  610.0000000000000    
_CHIRS=  610.0000000000000    
_COEFF=  610.0000000000000    
_CPU2IDX_CFIT=  610.0000000000000    
_CPU3IDX_CFIT=  610.0000000000000    
_CPUASMBL_CFIT=  610.0000000000000    
_CPUBLAS1=  610.0000000000000    
_CPUBLAS2=  610.0000000000000    
_CPUBLAS3=  610.0000000000000    
_CPUINT_DTRAF=  610.0000000000000    
_CPUSOLVE_CFIT=  610.0000000000000    
_CPUTOT=  1.830000000000000    
_CPUTR1_CFIT=  1.830000000000000    
_CPUTR2_CFIT=  1.830000000000000    
_CPUINV_CFIT=  1.830000000000000    
_CPUFIT_CFIT=  1.830000000000000    
_CPUTRANS_CFIT=  1.830000000000000    
_CPUSCREEN_CFIT=  1.830000000000000    
_CPUTRANS_DTRAF=  1.830000000000000    
_CPUTRA_DTRAF=  1.830000000000000    
_CPUTRIPL=  1.830000000000000    
_SYSTRIPL=  1.830000000000000    
_WALLTRIPL=  1.830000000000000    
_CPUCCSD=  1.830000000000000    
_SYSCCSD=  1.830000000000000    
_WALLCCSD=  1.830000000000000    
_CPUSORT= 0.2900000000000000    
_SYSSORT= 0.8000000000000000E-01
_WALLSORT= 0.3700000001117587    
_CPUF12= 0.3700000001117587    
_SYSF12= 0.3700000001117587    
_WALLF12= 0.3700000001117587    
_CPUF12B= 0.3700000001117587    
_SYSF12B= 0.3700000001117587    
_WALLF12B= 0.3700000001117587    
_CPUTRANS= 0.3700000001117587    
_SYSTRANS= 0.3700000001117587    
_WALLTRANS= 0.3700000001117587    
_DALTON= 0.3700000001117587    
_DARW= 0.3700000001117587    
_DECAY= 0.3700000001117587    
_DELE_CFIT= 0.3700000001117587    
_DELG_CFIT= 0.3700000001117587    
_DELTA= 0.3700000001117587    
_DFTEXFAC=  1.000000000000000    
_DFTFAC=  1.000000000000000    
_DFTFUN=  1.000000000000000    
_DFTFUNS=  1.000000000000000    
_DMEX=  1.000000000000000    
_DMEY=  1.000000000000000    
_DMEZ=  1.000000000000000    
_DMNX=  1.000000000000000    
_DMNY=  1.000000000000000    
_DMNZ=  1.000000000000000    
_DMSCF=  1.000000000000000    
_DMSCF_Efield=  1.000000000000000    
_DMSCF_I=  1.000000000000000    
_DMSCF_J=  1.000000000000000    
_DMSCF_K=  1.000000000000000    
_DMSCF_N1=  1.000000000000000    
_DMSCF_N2=  1.000000000000000    
_DMSCF_NUC=  1.000000000000000    
_DMSCF_T=  1.000000000000000    
_DMSCF_V=  1.000000000000000    
_DMX=  0.000000000000000    
_DMY=  0.000000000000000    
_DMZ=-0.8530454208963305    
_DMZCOR=-0.8530454208963305    
_DM_RHO1=-0.8530454208963305    
_DM_RVAL=-0.8530454208963305    
_DUMMYATOMS=-0.8530454208963305    
_FREQUENCIES=-0.8530454208963305    
_EDISP=-0.8530454208963305    
_EEDISP=-0.8530454208963305    
_EINTRA=-0.8530454208963305    
_EINTRA_R12=-0.8530454208963305    
_EINTER_R12=-0.8530454208963305    
_EIONIC=-0.8530454208963305    
_EMP2=-0.8530454208963305    
_EMP2_SING=-0.8530454208963305    
_EMP2_TRIP=-0.8530454208963305    
_EMP2_SINGLES=-0.8530454208963305    
_EMP2_SINGLES_D=-0.8530454208963305    
_EMP2_SCS=-0.8530454208963305    
_EMP2_STRONG=-0.8530454208963305    
_EMP2_CLOSE=-0.8530454208963305    
_EMP2_WEAK=-0.8530454208963305    
_EMP2_DIST=-0.8530454208963305    
_ECSING=-0.8530454208963305    
_ECTRIP=-0.8530454208963305    
_ECSINGLES=-0.8530454208963305    
_EF12=-0.8530454208963305    
_EF12_SING=-0.8530454208963305    
_EF12_TRIP=-0.8530454208963305    
_ECSING_F12=-0.8530454208963305    
_ECTRIP_F12=-0.8530454208963305    
_EF12_RHFRELAX=-0.8530454208963305    
_EF12_RHFRELAX_C=-0.8530454208963305    
_EF12_CONVSUPPRS=-0.8530454208963305    
_EF12_CONVSUPPRT=-0.8530454208963305    
_EF12_SINGLES=-0.8530454208963305    
_EF12_SINGLES_C=-0.8530454208963305    
_EF12_SCS=-0.8530454208963305    
_EF12_STRONG=-0.8530454208963305    
_EF12_CLOSE=-0.8530454208963305    
_EF12_WEAK=-0.8530454208963305    
_EF12_DIST=-0.8530454208963305    
_EF12S=-0.8530454208963305    
_EF12S_SING=-0.8530454208963305    
_EF12S_TRIP=-0.8530454208963305    
_EF12S_SCS=-0.8530454208963305    
_EF12S_STRONG=-0.8530454208963305    
_EF12S_CLOSE=-0.8530454208963305    
_EF12S_WEAK=-0.8530454208963305    
_EF12S_DIST=-0.8530454208963305    
_EF12D=-0.8530454208963305    
_EF12D_SING=-0.8530454208963305    
_EF12D_TRIP=-0.8530454208963305    
_EF12D_SCS=-0.8530454208963305    
_EF12D_STRONG=-0.8530454208963305    
_EF12D_CLOSE=-0.8530454208963305    
_EF12D_WEAK=-0.8530454208963305    
_EF12D_DIST=-0.8530454208963305    
_EF12F=-0.8530454208963305    
_EF12F_SING=-0.8530454208963305    
_EF12F_TRIP=-0.8530454208963305    
_EF12F_SCS=-0.8530454208963305    
_EF12F_STRONG=-0.8530454208963305    
_EF12F_CLOSE=-0.8530454208963305    
_EF12F_WEAK=-0.8530454208963305    
_EF12F_DIST=-0.8530454208963305    
_EMP2R12_2AD=-0.8530454208963305    
_EMP2R12_2A=-0.8530454208963305    
_EMP2R12_2AP=-0.8530454208963305    
_EMP2R12_2SAD=-0.8530454208963305    
_EMP2R12_2SA=-0.8530454208963305    
_EMP2R12_2SAP=-0.8530454208963305    
_EMP2R12_2B=-0.8530454208963305    
_EMP2_R12=-0.8530454208963305    
_EMP2_R12_A=-0.8530454208963305    
_EMP2_R12_AP=-0.8530454208963305    
_EMP2_R12_AD=-0.8530454208963305    
_EMP2_R12_2A=-0.8530454208963305    
_EMP2_R12_2SA=-0.8530454208963305    
_EMP2_R12_2SAP=-0.8530454208963305    
_EMP2_R12_2SAD=-0.8530454208963305    
_EMP2_R12_2AP=-0.8530454208963305    
_EMP2_R12_DIAG=-0.8530454208963305    
_EMP2_R12_STRONG=-0.8530454208963305    
_EMP2_R12_CLOSE=-0.8530454208963305    
_EMP2_R12_WEAK=-0.8530454208963305    
_EMP2_R12_DIST=-0.8530454208963305    
_EMP2_R12_SING=-0.8530454208963305    
_EMP2_R12_TRIP=-0.8530454208963305    
_EMP2_R12_SCS=-0.8530454208963305    
_EMP2R=-0.8530454208963305    
_EMP3=-0.8530454208963305    
_EMP3R=-0.8530454208963305    
_EMP4=-0.8530454208963305    
_ENERGC=-0.8530454208963305    
_ENERGCL=-0.8530454208963305    
_ENERG_CC=-0.8530454208963305    
_ENERG_CV=-0.8530454208963305    
_ENERG_VV=-0.8530454208963305    
_ENERGD=-0.8530454208963305    
_ENERGD0=-0.8530454208963305    
_ENERGD1=-0.8530454208963305    
_ENERGD2=-0.8530454208963305    
_ENERGD3=-0.8530454208963305    
_ENERGD4=-0.8530454208963305    
_ENERGP=-0.8530454208963305    
_ENERGP0=-0.8530454208963305    
_ENERGP1=-0.8530454208963305    
_ENERGP2=-0.8530454208963305    
_ENERGP3=-0.8530454208963305    
_ENERGP4=-0.8530454208963305    
_ENERGR=-0.8530454208963305    
_ENERGRR=-0.8530454208963305    
_ENERGS=-0.8530454208963305    
_ENERGT=-0.8530454208963305    
_ENERGU=-0.8530454208963305    
_ENERGW=-0.8530454208963305    
_ENERGY= -246.7157270184262    
_ENERGY_MP= -246.7157270184262    
_ECBS= -246.7157270184262    
_ECBSD= -246.7157270184262    
_ENUC=  207.4692536740345    
_EPDIST=  207.4692536740345    
_EPDIST_R12=  207.4692536740345    
_EPSUM=  207.4692536740345    
_EPSUM_R12=  207.4692536740345    
_EPS1= -15.56207487101169    
_EPS2=-0.5428601104874911    
_EPS3= -11.27431826417675    
_EPS4=-0.3458656487815205    
_EPS5=-0.3458656487815205    
_EPS6=-0.3458656487815205    
_EPS7=-0.3458656487815205    
_EPS8=-0.3458656487815205    
_EREL=-0.3458656487815205    
_FLOPBLAS1=-0.3458656487815205    
_FLOPBLAS2=-0.3458656487815205    
_FLOPBLAS3=-0.3458656487815205    
_FLOPDGM=-0.3458656487815205    
_FLOPDGV=-0.3458656487815205    
_FLOPMXM=-0.3458656487815205    
_FLOPMXV=-0.3458656487815205    
_FREQSTEP=-0.3458656487815205    
!RS2GRSTATE=-0.3458656487815205    
!RS2GRSYM=-0.3458656487815205    
_GRADENERG=-0.3458656487815205    
_GRADEXFAC=  9999.000000000000    
_GRADMETHOD=  1.000000000000000    
_GRADRECORD=  1.000000000000000    
_VIRIAL=  1.000000000000000    
_GRADX=  1.000000000000000    
_GRADY=  1.000000000000000    
_GRADZ=  1.000000000000000    
_GRADVAR=  1.000000000000000    
_GRID=  1.000000000000000    
_GRID_FREEZE=  1.000000000000000    
!GRID_FREEZE= -1.000000000000000    
!GRIDREC= -1.000000000000000    
_GRID_WEIGHT_CUT= -1.000000000000000    
_GRID_BLOCKSIZE= -1.000000000000000    
_GRID_SPARSITY= -1.000000000000000    
_GRID_RMAX= -1.000000000000000    
_GTOTAL= -1.000000000000000    
_HDIA= -1.000000000000000    
_HDIACI= -1.000000000000000    
_HEAT= -1.000000000000000    
_HTOTAL= -1.000000000000000    
_INCR_CORR= -1.000000000000000    
_INCR_COUNT= -1.000000000000000    
_INCR_READY= -1.000000000000000    
_ISCHI= -1.000000000000000    
_ITERATIONS=  10.00000000000000    
_KFIT=  10.00000000000000    
_LASTNELEC=  42.00000000000000    
_LASTSPIN=  0.000000000000000    
_LASTSYM=  1.000000000000000    
_LL=  1.000000000000000    
_MASSV=  1.000000000000000    
_MIN_ITER=  1.000000000000000    
_MIXANG=  1.000000000000000    
_MIXANGCI=  1.000000000000000    
_MPP_PROG=  0.000000000000000    
_MSENERGY=  0.000000000000000    
_NACME=  0.000000000000000    
_NBAS_CFIT=  0.000000000000000    
_NEWREC=  0.000000000000000    
_NGRID=  0.000000000000000    
_NPROC_MPP=  1.000000000000000    
_NPROC_SMP=  1.000000000000000    
_NUMSTEP=  0.000000000000000    
_OPNUC=  0.000000000000000    
_OPTCONVMX=  0.000000000000000    
_OPTCONVRMS=  0.000000000000000    
_OPTGRAD=  0.000000000000000    
_OPTGRADMX=  0.000000000000000    
_OPTGRADRMS=  0.000000000000000    
_OPTRMSMAX=  0.000000000000000    
_OPTSTEP=  0.000000000000000    
_ORBITAL=  2100.200000000000    
_PAOINT_CFIT=  2100.200000000000    
_PENALTY=  2100.200000000000    
_PH1INT_CFIT=  2100.200000000000    
_PH1VEC_CFIT=  2100.200000000000    
_PH2INT_CFIT=  2100.200000000000    
_PHASE=  2100.200000000000    
_PI=  3.141592653589793    
_PMOINT_CFIT=  3.141592653589793    
_PMOVEC_CFIT=  3.141592653589793    
_POISSON_ECORR=  3.141592653589793    
_POISSON_ERROR=  3.141592653589793    
_POLXX=  3.141592653589793    
_POLXY=  3.141592653589793    
_POLXZ=  3.141592653589793    
_POLYY=  3.141592653589793    
_POLYZ=  3.141592653589793    
_POLZZ=  3.141592653589793    
_POLYX=  3.141592653589793    
_POLZX=  3.141592653589793    
_POLZY=  3.141592653589793    
_POVINT_CFIT=  3.141592653589793    
_ROOT=  3.141592653589793    
_RPDIST=  3.141592653589793    
_RPMIN=  3.141592653589793    
_RPMAX=  3.141592653589793    
_EPCON=  3.141592653589793    
_ECDIAG=  3.141592653589793    
_EPDIAG=  3.141592653589793    
!MCACT=  3.141592653589793    
!MCCLOSED=  3.141592653589793    
!MCFREEZE=  3.141592653589793    
!MCMS2=  3.141592653589793    
!MCNEL=  3.141592653589793    
!MCNSTSYM=  3.141592653589793    
!MCSTATE=  3.141592653589793    
!MCSYM=  3.141592653589793    
!MCWEIGHT=  3.141592653589793    
_SEIG_MIN= 0.7670277347535995E-03
_SEWPROP=TRUE
_SMAT=TRUE
_SMATCI=TRUE
_SSQUARED=TRUE
_STATUS=  1.000000000000000    
_SYSBLAS1=  1.000000000000000    
_SYSBLAS2=  1.000000000000000    
_SYSBLAS3=  1.000000000000000    
_SYSTEM_RC=  1.000000000000000    
_SYSTOT= 0.1400000000000000    
_T1DIAG= 0.1400000000000000    
_D1DIAG= 0.1400000000000000    
_TASK= 0.1400000000000000    
_TROV= 0.1400000000000000    
_HMAT= 0.1400000000000000    
_UMAT= 0.1400000000000000    
_UMATCI= 0.1400000000000000    
_VERSION=  2010001.000000000    
_WALLBLAS1=  2010001.000000000    
_WALLBLAS2=  2010001.000000000    
_WALLBLAS3=  2010001.000000000    
_WALLTOT=  1.970000000000000    
_ZPE=  1.970000000000000    
!DFBASIS_COUL=  1.970000000000000    
!DFBASIS_EXCH=  1.970000000000000    
!DFBASIS_MP2=  1.970000000000000    
!DFBASIS_F12K=  1.970000000000000    
!DFBASIS_CCSD=  1.970000000000000    
!RIBASIS_MP2=  1.970000000000000    
!RIBASIS_EXCH=  1.970000000000000    
_DATE=13-Aug-19
_LASTORB=RHF
_MACHINE=Linux-2.6.32-754.3.5.el6.x86_64/toren.open.ac.uk(x86_64) 64 bit serial version
_METHODC=
_METHODT=
_OUTPUT=/scratch/ddl27/UKRmol/Pyridine/output/Pyridine/cc-pVDZ.CAS.0frozen.21active.0virtual.18nPCO.2maxl_PCO.20states.r15.C2v.T.0.10_2.0.scattering/geom1/outputs/target.molpro.out
_PGROUP=C2v
_SEMI=
_TIME=14:45:40
_ANSATZ=
_LIBMOL=/data/jdgorfinkiel/MOLPRO/Molpro.2010.1.26/bin/../lib/
_VDIAG=
_UDIAG=
!AOINTADDSC=
_TRANSFORM_FORCE=
_SOLVE_ITER=
_VSCF_FREQ=
_VMCSCF_FREQ=
_VCI_FREQ=
_VMP2_FREQ=
_VSCF_INTENS=
_VMCSCF_INTENS=
_VCI_INTENS=
_VMP2_INTENS=
!SURFREC=  0.000000000000000    
!POLYREC=  0.000000000000000    
!DIPREC=  0.000000000000000    
!VSCFREC=  0.000000000000000    
!VCIREC=  0.000000000000000    
!PVCIREC=  0.000000000000000    
!VMP2REC=  0.000000000000000    
!VMCSCFREC=  0.000000000000000    
!GAREC=  0.000000000000000    
!SCFORB=  21002.00000000000    
!MCORB=  21002.00000000000    
!CIOCC=  21002.00000000000    
!CICORE=  21002.00000000000    
!CICLOS=  21002.00000000000    
!UNO_OCC=  21002.00000000000    
!UNO_CLOSED=  21002.00000000000    
!CINSTSYM=  21002.00000000000    
!CIISTSYM=  21002.00000000000    
!CIISTMS2=  21002.00000000000    
!CIISTNEL=  21002.00000000000    
!CIMS2=  21002.00000000000    
!NEWMOL= -1.000000000000000    
!NEWSYM= -1.000000000000000    
!NEWORIENT= -1.000000000000000    
_SLFILES=slscratch
_NGSSTO=  9.000000000000000    
_SIN=SIN
_COS=COS
_TAN=TAN
_ACOS=ACOS
_ASIN=ASIN
_ATAN=ATAN
_COSH=COSH
_SINH=SINH
_TANH=TANH
_ABS=ABS
_MOD=MOD
_ERF=ERF
_REFC=REFC
_ERFC=ERFC
_HYPOT=HYPOT
_J0=J0
_J1=J1
_JN=JN
_GAMMA=GAMMA
_LGAMMA=LGAMMA
_Y0=Y0
_Y1=Y1
_YN=YN
_EXP=EXP
_LOG=LOG
_LOG10=LOG10
_SQRT=SQRT
_INT=INT
_NINT=NINT
_MAX=MAX
_MIN=MIN
_COSMO=  0.000000000000000    
_COSMOIT=  0.000000000000000    
_COSMOES=  0.000000000000000    
_COSMOEDS=  0.000000000000000    
_COSMOEC=  0.000000000000000    
_COSMOEDCORR=  0.000000000000000    
_FEPSI=  1.000000000000000    
_SL_IsMM=  0.000000000000000    
_SL_NSYM=  0.000000000000000    
_SL_System_BitSw=  0.000000000000000    
_SL_Unique_atoms=  0.000000000000000    
_SL_Last_energy=  0.000000000000000    
_SL_GRAD=  0.000000000000000    
_SL_MAXUPD_Hess=  5.000000000000000    
_SL_N_PRINT_COD=  5.000000000000000    
_SL_PRINT_CODES=  0.000000000000000    
_SL_BasType=  0.000000000000000    
_SL_Energy_Pred=  0.000000000000000    
_SL_New_Coords=  0.000000000000000    
_SL_Total_Nuclea=  0.000000000000000    
_SL_Highest_Mltp=  0.000000000000000    
_SL_Ref_Geom=  0.000000000000000    
_CONFIG=  0.000000000000000    
_OCC=  0.000000000000000    
_CORE=  0.000000000000000    
_CLOSED=  0.000000000000000    
_SCFOCC=  0.000000000000000    
_SCFCLOSED=  0.000000000000000    
_SCFCORE=  0.000000000000000    
_MCOCC=  0.000000000000000    
_MCCLOSED=  0.000000000000000    
_MCFROZEN=  0.000000000000000    
_MCCORE=  0.000000000000000    
_CIOCC=  0.000000000000000    
_CICLOSED=  0.000000000000000    
_CICORE=  0.000000000000000    
_CCOCC=  0.000000000000000    
_CCCLOSED=  0.000000000000000    
_CCCORE=  0.000000000000000    
_SRXC=  0.000000000000000    
_SRC=  0.000000000000000    
_SRX=  0.000000000000000    
_SRH=  0.000000000000000    
_E_EXCHANGE=  0.000000000000000    
!LATTICE= -1.000000000000000    
!NEWLATTICE=  0.000000000000000    
!LATGRAD_VAR=FALSE
!SEW_LATTICE=  1.000000000000000    
_LATGRADX=  1.000000000000000    
_LATGRADY=  1.000000000000000    
_LATGRADZ=  1.000000000000000    
!SCALTABINIT=  1.000000000000000    
!LOCAL=  0.000000000000000    
!SAVEOCC=  0.000000000000000    
!SAVEDOM= -1.000000000000000    
!RESTDOM= -1.000000000000000    
!SAVEDOM_HF= -1.000000000000000    
!RESTDOM_HF= -1.000000000000000    
!HESSREC=  0.000000000000000    
!FREQREC=  0.000000000000000    
!NMODREC=  0.000000000000000    
!GTASKS=  0.000000000000000    
!HTASKS=  0.000000000000000    
!THRCHG= 0.1000000000000000    
!DEBUG= -1.000000000000000    
!CFIT_CPHF=  0.000000000000000    
!RDOMAUX_CPHF=  3.000000000000000    
!THRAO_CPHF= 0.1000000000000000E-09
!THRMO_CPHF= 0.1000000000000000E-08
!THROV_CPHF= 0.1000000000000000E-11
!THRSW_CPHF= 0.1000000000000000E-09
!THRPROD_CPHF= 0.1000000000000000E-08
!THRAOPR_CPHF= 0.1000000000000000E-11
!CFIT_SCFGRD=  0.000000000000000    
!RDOMAUX_SCFGRD=  5.000000000000000    
!THRAO_SCFGRD= 0.1000000000000000E-09
!THRMO_SCFGRD= 0.1000000000000000E-08
!THROV_SCFGRD= 0.1000000000000000E-11
!THRSW_SCFGRD= 0.1000000000000000E-09
!THRPROD_SCFGRD= 0.1000000000000000E-08
!THRAOPR_SCFGRD= 0.1000000000000000E-11
!LOCFIT_SCF=  0.000000000000000    
!LOCFIT_MP2= -1.000000000000000    
_RIDOM=  0.000000000000000    
_FCI_METHOD=  0.000000000000000    
!CC2_METHOD=  0.000000000000000    
_BASIS2006=FALSE
_SVDDEL= -1.000000000000000    
_SVDDELA= -1.000000000000000    
_SVDDELP= -1.000000000000000    
_SVDDELF= -1.000000000000000    
_SVDDELS= -1.000000000000000    
_SVDDEL_ABS= -1.000000000000000    
_SVDDELA_ABS= -1.000000000000000    
_SVDDELP_ABS= -1.000000000000000    
_SVDDELF_ABS= -1.000000000000000    
_SVDDELS_ABS= -1.000000000000000    
_MAXBASIS=  0.000000000000000    
!OPT_CONICAL=  0.000000000000000    
!CLEARSP_JGRID=  0.000000000000000    
_SHLDTENSOR=  0.000000000000000    
_OMEGAF_S=  0.000000000000000    
_OMEGAF_T=  0.000000000000000    
_RE=  0.000000000000000    
_BE=  0.000000000000000    
_AE=  0.000000000000000    
_WE=  0.000000000000000    
_WEXE=  0.000000000000000    
_WEYE=  0.000000000000000    
_METHOD=  0.000000000000000    
_C0=  0.000000000000000    
_C0R=  0.000000000000000    
METHOD=HF
GX1=  0.000000000000000    
GY1=  0.000000000000000    
GZ1=  2.602654195000000    
GX2=  0.000000000000000    
GY2=  2.136717711000000    
GZ2=  1.306677361000000    
GX3=  0.000000000000000    
GY3= -2.136717711000000    
GZ3=  1.306677361000000    
GX4=  0.000000000000000    
GY4=  2.251613295000000    
GZ4= -1.313244311000000    
GX5=  0.000000000000000    
GY5= -2.251613295000000    
GZ5= -1.313244311000000    
GX6=  0.000000000000000    
GY6=  0.000000000000000    
GZ6= -2.651173151000000    
GX7=  0.000000000000000    
GY7=  3.861096336000000    
GZ7=  2.410846600000000    
GX8=  0.000000000000000    
GY8= -3.861096336000000    
GZ8=  2.410846600000000    
GX9=  0.000000000000000    
GY9=  4.058006202000000    
GZ9= -2.267368988000000    
GX10=  0.000000000000000    
GY10= -4.058006202000000    
GZ10= -2.267368988000000    
GX11=  0.000000000000000    
GY11=  0.000000000000000    
GZ11= -4.696616903000000    
[Atoms] Angs
N     1    7         0.0000000000        0.0000000000        1.3772652829
C     2    6         0.0000000000        1.1307023147        0.6914638790
C     3    6         0.0000000000       -1.1307023147        0.6914638790
C     4    6         0.0000000000        1.1915024392       -0.6949389592
C     5    6         0.0000000000       -1.1915024392       -0.6949389592
C     6    6         0.0000000000        0.0000000000       -1.4029404086
H     7    1         0.0000000000        2.0432041828        1.2757650751
H     8    1         0.0000000000       -2.0432041828        1.2757650751
H     9    1         0.0000000000        2.1474043961       -1.1998399928
H    10    1         0.0000000000       -2.1474043961       -1.1998399928
H    11    1         0.0000000000        0.0000000000       -2.4853426245
[GTO]
  1 0
 s    8  1.00
  0.9046000000D+04  0.6996174134D-03
  0.1357000000D+04  0.5386054630D-02
  0.3093000000D+03  0.2739102119D-01
  0.8773000000D+02  0.1031505920D+00
  0.2856000000D+02  0.2785706633D+00
  0.1021000000D+02  0.4482948495D+00
  0.3838000000D+01  0.2780859284D+00
  0.7466000000D+00  0.1543156123D-01
 s    8  1.00
  0.9046000000D+04 -0.3049900960D-03
  0.1357000000D+04 -0.2408026379D-02
  0.3093000000D+03 -0.1194444873D-01
  0.8773000000D+02 -0.4892599291D-01
  0.2856000000D+02 -0.1344727247D+00
  0.1021000000D+02 -0.3151125777D+00
  0.3838000000D+01 -0.2428578325D+00
  0.7466000000D+00  0.1094382207D+01
 s    1  1.00
  0.2248000000D+00  0.1000000000D+01
 p    3  1.00
  0.1355000000D+02  0.5890567677D-01
  0.2917000000D+01  0.3204611067D+00
  0.7973000000D+00  0.7530420618D+00
 p    1  1.00
  0.2185000000D+00  0.1000000000D+01
 d    1  1.00
  0.8170000000D+00  0.1000000000D+01
  
  2 0
 s    8  1.00
  0.6665000000D+04  0.6915839628D-03
  0.1000000000D+04  0.5325796153D-02
  0.2280000000D+03  0.2706072104D-01
  0.6471000000D+02  0.1016568461D+00
  0.2106000000D+02  0.2745748236D+00
  0.7495000000D+01  0.4482943189D+00
  0.2797000000D+01  0.2849026107D+00
  0.5215000000D+00  0.1519485921D-01
 s    8  1.00
  0.6665000000D+04 -0.2932696527D-03
  0.1000000000D+04 -0.2318035474D-02
  0.2280000000D+03 -0.1149978604D-01
  0.6471000000D+02 -0.4682672701D-01
  0.2106000000D+02 -0.1284661688D+00
  0.7495000000D+01 -0.3012662725D+00
  0.2797000000D+01 -0.2556307023D+00
  0.5215000000D+00  0.1093793361D+01
 s    1  1.00
  0.1596000000D+00  0.1000000000D+01
 p    3  1.00
  0.9439000000D+01  0.5697925159D-01
  0.2002000000D+01  0.3132072115D+00
  0.5456000000D+00  0.7603767417D+00
 p    1  1.00
  0.1517000000D+00  0.1000000000D+01
 d    1  1.00
  0.5500000000D+00  0.1000000000D+01
  
  3 0
 s    8  1.00
  0.6665000000D+04  0.6915839628D-03
  0.1000000000D+04  0.5325796153D-02
  0.2280000000D+03  0.2706072104D-01
  0.6471000000D+02  0.1016568461D+00
  0.2106000000D+02  0.2745748236D+00
  0.7495000000D+01  0.4482943189D+00
  0.2797000000D+01  0.2849026107D+00
  0.5215000000D+00  0.1519485921D-01
 s    8  1.00
  0.6665000000D+04 -0.2932696527D-03
  0.1000000000D+04 -0.2318035474D-02
  0.2280000000D+03 -0.1149978604D-01
  0.6471000000D+02 -0.4682672701D-01
  0.2106000000D+02 -0.1284661688D+00
  0.7495000000D+01 -0.3012662725D+00
  0.2797000000D+01 -0.2556307023D+00
  0.5215000000D+00  0.1093793361D+01
 s    1  1.00
  0.1596000000D+00  0.1000000000D+01
 p    3  1.00
  0.9439000000D+01  0.5697925159D-01
  0.2002000000D+01  0.3132072115D+00
  0.5456000000D+00  0.7603767417D+00
 p    1  1.00
  0.1517000000D+00  0.1000000000D+01
 d    1  1.00
  0.5500000000D+00  0.1000000000D+01
  
  4 0
 s    8  1.00
  0.6665000000D+04  0.6915839628D-03
  0.1000000000D+04  0.5325796153D-02
  0.2280000000D+03  0.2706072104D-01
  0.6471000000D+02  0.1016568461D+00
  0.2106000000D+02  0.2745748236D+00
  0.7495000000D+01  0.4482943189D+00
  0.2797000000D+01  0.2849026107D+00
  0.5215000000D+00  0.1519485921D-01
 s    8  1.00
  0.6665000000D+04 -0.2932696527D-03
  0.1000000000D+04 -0.2318035474D-02
  0.2280000000D+03 -0.1149978604D-01
  0.6471000000D+02 -0.4682672701D-01
  0.2106000000D+02 -0.1284661688D+00
  0.7495000000D+01 -0.3012662725D+00
  0.2797000000D+01 -0.2556307023D+00
  0.5215000000D+00  0.1093793361D+01
 s    1  1.00
  0.1596000000D+00  0.1000000000D+01
 p    3  1.00
  0.9439000000D+01  0.5697925159D-01
  0.2002000000D+01  0.3132072115D+00
  0.5456000000D+00  0.7603767417D+00
 p    1  1.00
  0.1517000000D+00  0.1000000000D+01
 d    1  1.00
  0.5500000000D+00  0.1000000000D+01
  
  5 0
 s    8  1.00
  0.6665000000D+04  0.6915839628D-03
  0.1000000000D+04  0.5325796153D-02
  0.2280000000D+03  0.2706072104D-01
  0.6471000000D+02  0.1016568461D+00
  0.2106000000D+02  0.2745748236D+00
  0.7495000000D+01  0.4482943189D+00
  0.2797000000D+01  0.2849026107D+00
  0.5215000000D+00  0.1519485921D-01
 s    8  1.00
  0.6665000000D+04 -0.2932696527D-03
  0.1000000000D+04 -0.2318035474D-02
  0.2280000000D+03 -0.1149978604D-01
  0.6471000000D+02 -0.4682672701D-01
  0.2106000000D+02 -0.1284661688D+00
  0.7495000000D+01 -0.3012662725D+00
  0.2797000000D+01 -0.2556307023D+00
  0.5215000000D+00  0.1093793361D+01
 s    1  1.00
  0.1596000000D+00  0.1000000000D+01
 p    3  1.00
  0.9439000000D+01  0.5697925159D-01
  0.2002000000D+01  0.3132072115D+00
  0.5456000000D+00  0.7603767417D+00
 p    1  1.00
  0.1517000000D+00  0.1000000000D+01
 d    1  1.00
  0.5500000000D+00  0.1000000000D+01
  
  6 0
 s    8  1.00
  0.6665000000D+04  0.6915839628D-03
  0.1000000000D+04  0.5325796153D-02
  0.2280000000D+03  0.2706072104D-01
  0.6471000000D+02  0.1016568461D+00
  0.2106000000D+02  0.2745748236D+00
  0.7495000000D+01  0.4482943189D+00
  0.2797000000D+01  0.2849026107D+00
  0.5215000000D+00  0.1519485921D-01
 s    8  1.00
  0.6665000000D+04 -0.2932696527D-03
  0.1000000000D+04 -0.2318035474D-02
  0.2280000000D+03 -0.1149978604D-01
  0.6471000000D+02 -0.4682672701D-01
  0.2106000000D+02 -0.1284661688D+00
  0.7495000000D+01 -0.3012662725D+00
  0.2797000000D+01 -0.2556307023D+00
  0.5215000000D+00  0.1093793361D+01
 s    1  1.00
  0.1596000000D+00  0.1000000000D+01
 p    3  1.00
  0.9439000000D+01  0.5697925159D-01
  0.2002000000D+01  0.3132072115D+00
  0.5456000000D+00  0.7603767417D+00
 p    1  1.00
  0.1517000000D+00  0.1000000000D+01
 d    1  1.00
  0.5500000000D+00  0.1000000000D+01
  
  7 0
 s    3  1.00
  0.1301000000D+02  0.3349872639D-01
  0.1962000000D+01  0.2348008012D+00
  0.4446000000D+00  0.8136829579D+00
 s    1  1.00
  0.1220000000D+00  0.1000000000D+01
 p    1  1.00
  0.7270000000D+00  0.1000000000D+01
  
  8 0
 s    3  1.00
  0.1301000000D+02  0.3349872639D-01
  0.1962000000D+01  0.2348008012D+00
  0.4446000000D+00  0.8136829579D+00
 s    1  1.00
  0.1220000000D+00  0.1000000000D+01
 p    1  1.00
  0.7270000000D+00  0.1000000000D+01
  
  9 0
 s    3  1.00
  0.1301000000D+02  0.3349872639D-01
  0.1962000000D+01  0.2348008012D+00
  0.4446000000D+00  0.8136829579D+00
 s    1  1.00
  0.1220000000D+00  0.1000000000D+01
 p    1  1.00
  0.7270000000D+00  0.1000000000D+01
  
 10 0
 s    3  1.00
  0.1301000000D+02  0.3349872639D-01
  0.1962000000D+01  0.2348008012D+00
  0.4446000000D+00  0.8136829579D+00
 s    1  1.00
  0.1220000000D+00  0.1000000000D+01
 p    1  1.00
  0.7270000000D+00  0.1000000000D+01
  
 11 0
 s    3  1.00
  0.1301000000D+02  0.3349872639D-01
  0.1962000000D+01  0.2348008012D+00
  0.4446000000D+00  0.8136829579D+00
 s    1  1.00
  0.1220000000D+00  0.1000000000D+01
 p    1  1.00
  0.7270000000D+00  0.1000000000D+01
 
 
[MO]
 Sym=      1.1
 Ene=     -15.5621
 Spin= Alpha
 Occup=    2.000000
1 1.00201302022824
2 0.003457429631472
3 -0.010512682071391
4 0.0
5 0.0
6 -0.002183431686568
7 0.0
8 0.0
9 0.003249725686016
10 -0.000330668752044
11 0.000333343601883
12 -0.000002674849839
13 0.0
14 0.0
15 0.0
16 0.000142075705475
17 0.000109901821111
18 0.004562805614265
19 0.0
20 0.000038645156450
21 -0.000036999695102
22 0.0
23 -0.002853848716668
24 -0.000752006820700
25 0.000141096273442
26 -0.000241642399128
27 0.000100546125686
28 0.0
29 0.0
30 0.000636671100298
31 0.000142075705475
32 0.000109901821111
33 0.004562805614265
34 0.0
35 -0.000038645156450
36 -0.000036999695102
37 0.0
38 0.002853848716668
39 -0.000752006820700
40 0.000141096273442
41 -0.000241642399128
42 0.000100546125686
43 0.0
44 0.0
45 -0.000636671100298
46 0.000109674400120
47 0.000171014598123
48 -0.004077116945773
49 0.0
50 0.000033326675847
51 -0.000090848169229
52 0.0
53 0.002847891488873