[Molden Format]
[Molpro variables]
_NUMVAR=  804.0000000000000    
_AVOGAD= 0.6022136736000000E+24
_BOLTZ= 0.1380658000000000E-22
_CLIGHT=  29979245800.00000    
_EV2006= 0.3674930886769165E-01
_EV= 0.3674932534394180E-01
_ENULL= 0.8854187817000000E-11
_KJOULE= 0.3808798324128737E-03
_KJOULE/MOL= 0.3808798324128737E-03
_CM= 0.4556335267302901E-05
_CM-1= 0.4556335267302901E-05
_DEB2SI= 0.3335641000000000E-29
_AMU2AU=  1822.888390000000    
_KCAL= 0.1593601117815568E-02
_KCAL/MOL= 0.1593601117815568E-02
_KELVIN2006= 0.3166828861084835E-05
_KELVIN= 0.3166814820820034E-05
_JOULE= 0.4359748200000000E-17
_HERTZ2006= 0.1519829850815779E-15
_HERTZ= 0.1519829846011223E-15
_HZ2006= 0.1519829850815779E-15
_HZ= 0.1519829846011223E-15
_JPCAL=  4.184000000000000    
_PLANCK= 0.6626075540000000E-33
_TOA2006= 0.5291772490000000    
_TOA= 0.5291772090000000    
_TOANG2006= 0.5291772490000000    
_TOANG= 0.5291772090000000    
_TORAD= 0.1745329251994330E-01
_TOCM=  219474.6306700000    
_TODEBYE=  2.541580000000000    
_TOEV2006=  27.21139610000000    
_TOE= 0.4803242000000000E-09
_TOEV=  27.21138390000000    
_TOHERTZ2006=  6579683899900000.    
_TOHERTZ=  6579683920700000.    
_TOHZ2006=  6579683899900000.    
_TOHZ=  6579683920700000.    
_TOK2006=  315773.3000000000    
_TOK=  315774.7000000000    
_TOKCAL=  627.5096000000000    
_TOKELVIN2006=  315773.3000000000    
_TOKELVIN=  315774.7000000000    
_TOKJ=  2625.500000000000    
_TOKJOULE=  2625.500000000000    
_TOKG= 0.1660565586000000E-26
_ANG2006=  1.889725988578923    
_ANG=  1.889726131421507    
_ANGSTROM2006=  1.889725988578923    
_ANGSTROM=  1.889726131421507    
_RPAREF=  0.000000000000000    
_RPADISS=  0.000000000000000    
_IGNORE_UNDEF=  2.000000000000000    
_STRICTCHECK=  0.000000000000000    
_SEW_ONEEL=  0.000000000000000    
_CPPDONE=FALSE
_DKROLL_DONE=  0.000000000000000    
_FOCKDONE=TRUE
_GRADONE=FALSE
_HESSDONE=FALSE
_INTDONE=TRUE
_SCFDONE=TRUE
_MODUL_BLOCK=FALSE
_MODUL_CUDA=FALSE
_MODUL_SLATER=FALSE
_MODUL_MRCC=FALSE
_MODUL_NBO6=FALSE
_MODUL_NECI=TRUE
_MODUL_AIMS=TRUE
_MRCC_EXEC=
_FITC_AO_SAVED=FALSE
_FITC_MO_SAVED=FALSE
_SHARED_FS=TRUE
_LSTYP=SEWARD
_INTYP=INTS
_GEOMTYP=ZMAT
_GRADTYP=ALASKA
_DIRECT=FALSE
_DKHO= -1.000000000000000    
_SYNCM=  0.000000000000000    
_BASIS=USERDEF
_ZORIENT=  1.000000000000000    
_NELEC=  18.00000000000000    
!SPIN=  0.000000000000000    
_QSDSTEP=  0.000000000000000    
_QSDIRC=  0.000000000000000    
_PROGRAM=MATROP
_CPUSTEP= 0.9999999999999787E-02
_SYSSTEP=  0.000000000000000    
_WALLSTEP= 0.1800000000000000    
!DFSCF=  0.000000000000000    
!SCSGRD=  0.000000000000000    
_BASINP=  610.0000000000000    
_CPUTOT=  2.490000000000000    
_DFTEXFAC=  1.000000000000000    
_DMX=  0.000000000000000    
_DMY=  0.000000000000000    
_DMZ=  0.000000000000000    
_DMX_SCF=  0.000000000000000    
_DMY_SCF=  0.000000000000000    
_DMZ_SCF= 0.7443828750743386    
_EHOMO=-0.4665071449528893    
_ELUMO= 0.1919357610500780    
_ENUC=  38.06106386395650    
_EPS1= -20.65749837308446    
_EPS2= -20.65720638143248    
_GRADEXFAC=  9999.000000000000    
_GRADMETHOD=TRUE
_NMRMETHOD=  0.000000000000000    
!GRID_FREEZE= -1.000000000000000    
_ITERATIONS=  0.000000000000000    
_LASTNELEC=  10.00000000000000    
_LASTSPIN=  2.000000000000000    
_LASTSYM=  1.000000000000000    
_MPP_PROG=  0.000000000000000    
_NPROC_MPP=  1.000000000000000    
_NPROC_MPPX=  1.000000000000000    
_NPROC_SMP=  16.00000000000000    
_NUMSTEP=  0.000000000000000    
_ORBITAL=  2141.200000000000    
_PI=  3.141592653589793    
_SEIG_MIN= 0.2212598707150847E-01
_SEWPROP=TRUE
_STATUS=  0.000000000000000    
_SYSTOT=  1.200000000000000    
_VERSION=  2012001.000000000    
_WALLTOT=  20.90000000000000    
_DATE=24-Jan-19
_LASTORB=MCSCF
_MACHINE=Linux-4.9.0-8-amd64/nympha18.meta.zcu.cz(x86_64) (16 PROC) 64 bit serial version
_OUTPUT=/auto/brno2/home/masiz4am/git/UKRmol-in/tests/suite/C2_scattering_CC/molpro.xml
_PGROUP=C2
_TIME=16:41:32
_LIBMOL=/afs/ics.muni.cz/software/molpro-2012.1/molprop_2012_1_Linux_x86_64_i8/lib/
!VIBCNT=  0.000000000000000    
!RGHFCNT=  0.000000000000000    
!SURFREC=  0.000000000000000    
!POLYREC=  0.000000000000000    
!DIPREC=  0.000000000000000    
!VSCFREC=  0.000000000000000    
!VCIREC=  0.000000000000000    
!PVCIREC=  0.000000000000000    
!VMP2REC=  0.000000000000000    
!VMCSCFREC=  0.000000000000000    
!VMRCIREC=  0.000000000000000    
!VIBINFO=  0.000000000000000    
!GAREC=  0.000000000000000    
!SCFORB=  21002.00000000000    
!MCORB=  21412.00000000000    
!NEWMOL= -1.000000000000000    
!NEWSYM= -1.000000000000000    
_SLFILES=slscratch
_NGSSTO=  9.000000000000000    
_SIN=SIN
_COS=COS
_TAN=TAN
_ACOS=ACOS
_ASIN=ASIN
_ATAN=ATAN
_COSH=COSH
_SINH=SINH
_TANH=TANH
_ABS=ABS
_MOD=MOD
_ERF=ERF
_REFC=REFC
_ERFC=ERFC
_HYPOT=HYPOT
_J0=J0
_J1=J1
_JN=JN
_GAMMA=GAMMA
_LGAMMA=LGAMMA
_Y0=Y0
_Y1=Y1
_YN=YN
_EXP=EXP
_LOG=LOG
_LOG10=LOG10
_SQRT=SQRT
_INT=INT
_NINT=NINT
_MAX=MAX
_MIN=MIN
_COSMO=  0.000000000000000    
_COSMOIT=  0.000000000000000    
_COSMOES=  0.000000000000000    
_COSMOEDS=  0.000000000000000    
_COSMOEC=  0.000000000000000    
_COSMOEDCORR=  0.000000000000000    
_FEPSI=  1.000000000000000    
_SL_IsMM=  0.000000000000000    
_SL_NSYM=  2.000000000000000    
_SL_System_BitSw=  0.000000000000000    
_SL_Unique_atoms=  0.000000000000000    
_SL_GRAD=  0.000000000000000    
_SL_MAXUPD_Hess=  5.000000000000000    
_SL_N_PRINT_COD=  5.000000000000000    
_SL_PRINT_CODES=  0.000000000000000    
_SL_BasType=  0.000000000000000    
_SL_Energy_Pred=  0.000000000000000    
_SL_New_Coords=  0.000000000000000    
_SL_Total_Nuclea=  0.000000000000000    
_SL_Highest_Mltp=  0.000000000000000    
_SL_Ref_Geom=  0.000000000000000    
_SL_Symmetry_ope=  1.000000000000000    
_SL_agrad=  0.000000000000000    
_SL_GrdMax=  0.000000000000000    
_SL_GrdNorm=  0.000000000000000    
_SL_GrdRMS=  0.000000000000000    
!LATTICE= -1.000000000000000    
!NEWLATTICE=  0.000000000000000    
!LATGRAD_VAR=FALSE
!SEW_LATTICE=  1.000000000000000    
!LOCAL=  0.000000000000000    
!SAVEDOM= -1.000000000000000    
!RESTDOM= -1.000000000000000    
!SAVEDOM_HF= -1.000000000000000    
!RESTDOM_HF= -1.000000000000000    
!HESSREC=  0.000000000000000    
!FREQREC=  0.000000000000000    
!NMODREC=  0.000000000000000    
!GTASKS=  0.000000000000000    
!HTASKS=  0.000000000000000    
!THRCHG= 0.1000000000000000    
!DEBUG= -1.000000000000000    
!CFIT_CPHF=  0.000000000000000    
!RDOMAUX_CPHF=  3.000000000000000    
!THRAO_CPHF= 0.1000000000000000E-09
!THRMO_CPHF= 0.1000000000000000E-08
!THROV_CPHF= 0.1000000000000000E-11
!THRSW_CPHF= 0.1000000000000000E-09
!THRPROD_CPHF= 0.1000000000000000E-08
!THRAOPR_CPHF= 0.1000000000000000E-11
!CFIT_SCFGRD=  0.000000000000000    
!RDOMAUX_SCFGRD=  5.000000000000000    
!THRAO_SCFGRD= 0.1000000000000000E-09
!THRMO_SCFGRD= 0.1000000000000000E-08
!THROV_SCFGRD= 0.1000000000000000E-11
!THRSW_SCFGRD= 0.1000000000000000E-09
!THRPROD_SCFGRD= 0.1000000000000000E-08
!THRAOPR_SCFGRD= 0.1000000000000000E-11
!LOCFIT_SCF=  0.000000000000000    
!LOCFIT_MP2= -1.000000000000000    
_RIDOM=  0.000000000000000    
!CC2_METHOD=  0.000000000000000    
_BASIS2006=FALSE
_SVDDEL= -1.000000000000000    
_SVDDELA= -1.000000000000000    
_SVDDELP= -1.000000000000000    
_SVDDELF= -1.000000000000000    
_SVDDELS= -1.000000000000000    
_SVDDEL_ABS= -1.000000000000000    
_SVDDELA_ABS= -1.000000000000000    
_SVDDELP_ABS= -1.000000000000000    
_SVDDELF_ABS= -1.000000000000000    
_SVDDELS_ABS= -1.000000000000000    
_MAXBASIS=  0.000000000000000    
!OPT_CONICAL=  0.000000000000000    
!CLEARSP_JGRID=  0.000000000000000    
_4EXT_NDISKS=  1.000000000000000    
!ZMP=  0.000000000000000    
_MAXIT_ZMP=  500.0000000000000    
_MAXDIS_ZMP=  100.0000000000000    
_ACCU_ZMP=  14.00000000000000    
_SHIFTA_ZMP= -100.0000000000000    
!EMBEDFLAG=  1.000000000000000    
!EMBED=FALSE
!EMBED_F12=FALSE
!EMBEDNUC=  0.000000000000000    
_EMBEDENERGY=  0.000000000000000    
_KSPACETIME=  0.000000000000000    
_RSPACETIME=  0.000000000000000    
!EMBED_DFC=FALSE
!NUM_VOIDS=  0.000000000000000    
_IBODY=  0.000000000000000    
_EMBE_TOTAL=  0.000000000000000    
_EMBE_HF=  0.000000000000000    
_EMBE_CORR=  0.000000000000000    
!EDFT=  0.000000000000000    
_IFASTLATGRAD=  0.000000000000000    
_SINDEX=  0.000000000000000    
M_NAME=CASSCF(10,8)
M_CLOSED=  2.000000000000000    
M_OCC=  6.000000000000000    
GX1=  0.000000000000000    
GY1=  1.315816206000000    
GZ1=-0.1043128750000000    
GX2=  1.477198805000000    
GY2=  1.699052636000000    
GZ2= 0.8345029970000000    
GX3=  0.000000000000000    
GY3= -1.315816206000000    
GZ3=-0.1043128750000000    
GX4= -1.477198805000000    
GY4= -1.699052636000000    
GZ4= 0.8345029970000000    
_TRDMX=  0.000000000000000    
_TRDMY=  0.000000000000000    
_TRDMZ= 0.3807006508994525E-01
_QMXX=  1.317851596223889    
_TRQMXX=-0.7495993455537453E-01
_QMYY=-0.4437761822946662    
_TRQMYY= 0.1734021646354849    
_QMZZ=-0.8740754139292264    
_TRQMZZ=-0.9844223008011047E-01
_QMXY=  3.128484066032302    
_TRQMXY=-0.1559084672991453    
_QMXZ=  0.000000000000000    
_TRQMXZ=  0.000000000000000    
_QMYZ=  0.000000000000000    
_TRQMYZ=  0.000000000000000    
_QMRR= -23.52696735060779    
_TRQMRR=-0.1178953121513202    
[Atoms] Angs
O     1    8         0.0000000000        0.6962999474       -0.0551999961
H     2    1         0.7816999408        0.8990999319        0.4415999669
O     3    8         0.0000000000       -0.6962999474       -0.0551999961
H     4    1        -0.7816999408       -0.8990999319        0.4415999669
[GTO]
  1 0
 s    8  1.00
  0.1172000000D+05  0.7096459465D-03
  0.1759000000D+04  0.5467272292D-02
  0.4008000000D+03  0.2782311861D-01
  0.1137000000D+03  0.1047477397D+00
  0.3703000000D+02  0.2829208464D+00
  0.1327000000D+02  0.4484952387D+00
  0.5025000000D+01  0.2708168852D+00
  0.1013000000D+01  0.1545029161D-01
 s    8  1.00
  0.1172000000D+05 -0.3144434117D-03
  0.1759000000D+04 -0.2482137681D-02
  0.4008000000D+03 -0.1231635538D-01
  0.1137000000D+03 -0.5053891734D-01
  0.3703000000D+02 -0.1393849033D+00
  0.1327000000D+02 -0.3250774948D+00
  0.5025000000D+01 -0.2298483076D+00
  0.1013000000D+01  0.1095379347D+01
 s    1  1.00
  0.3023000000D+00  0.1000000000D+01
 p    3  1.00
  0.1770000000D+02  0.6267916628D-01
  0.3854000000D+01  0.3335365659D+00
  0.1046000000D+01  0.7412396416D+00
 p    1  1.00
  0.2753000000D+00  0.1000000000D+01
 d    1  1.00
  0.1185000000D+01  0.1000000000D+01
  
  3 0
 s    8  1.00
  0.1172000000D+05  0.7096459465D-03
  0.1759000000D+04  0.5467272292D-02
  0.4008000000D+03  0.2782311861D-01
  0.1137000000D+03  0.1047477397D+00
  0.3703000000D+02  0.2829208464D+00
  0.1327000000D+02  0.4484952387D+00
  0.5025000000D+01  0.2708168852D+00
  0.1013000000D+01  0.1545029161D-01
 s    8  1.00
  0.1172000000D+05 -0.3144434117D-03
  0.1759000000D+04 -0.2482137681D-02
  0.4008000000D+03 -0.1231635538D-01
  0.1137000000D+03 -0.5053891734D-01
  0.3703000000D+02 -0.1393849033D+00
  0.1327000000D+02 -0.3250774948D+00
  0.5025000000D+01 -0.2298483076D+00
  0.1013000000D+01  0.1095379347D+01
 s    1  1.00
  0.3023000000D+00  0.1000000000D+01
 p    3  1.00
  0.1770000000D+02  0.6267916628D-01
  0.3854000000D+01  0.3335365659D+00
  0.1046000000D+01  0.7412396416D+00
 p    1  1.00
  0.2753000000D+00  0.1000000000D+01
 d    1  1.00
  0.1185000000D+01  0.1000000000D+01
  
  2 0
 s    3  1.00
  0.1301000000D+02  0.3349872639D-01
  0.1962000000D+01  0.2348008012D+00
  0.4446000000D+00  0.8136829579D+00
 s    1  1.00
  0.1220000000D+00  0.1000000000D+01
 p    1  1.00
  0.7270000000D+00  0.1000000000D+01
  
  4 0
 s    3  1.00
  0.1301000000D+02  0.3349872639D-01
  0.1962000000D+01  0.2348008012D+00
  0.4446000000D+00  0.8136829579D+00
 s    1  1.00
  0.1220000000D+00  0.1000000000D+01
 p    1  1.00
  0.7270000000D+00  0.1000000000D+01
 
 
[MO]
 Sym=      1.1
 Ene=     -20.6575
 Spin= Alpha
 Occup=    2.000000
1 0.70777789478734
2 0.000844379912877
3 -0.002180419787914
4 0.000727745399025
5 -0.000974165307819
6 0.000271847856968
7 -0.000393183897188
8 0.000039507541446
9 -0.000247696341215
10 0.000172627081516
11 -0.000208204016475
12 0.000035576934959
13 0.000041787938631
14 0.000079164496009
15 0.000021342411449
16 0.70777789478734
17 0.000844379912877
18 -0.002180419787914
19 -0.000727745399025
20 0.000974165307819
21 0.000271847856968
22 0.000393183897188
23 -0.000039507541446
24 -0.000247696341215
25 0.000172627081516
26 -0.000208204016475
27 0.000035576934959
28 0.000041787938631
29 -0.000079164496009
30 -0.000021342411449
31 -0.000280554653222
32 0.000473809346474
33 0.000394438998901
34 -0.000027200892194
35 0.000250188617798
36 -0.000280554653222
37 0.000473809346474
38 -0.000394438998901
39 0.000027200892194
40 0.000250188617798
 Sym=      1.2
 Ene=     -20.6572
 Spin= Alpha
 Occup=    2.000000
1 0.70788875240181
2 0.000882987159671
3 -0.003662190162050
4 0.000501173082475
5 -0.000445388708826
6 0.000316890184397
7 -0.000388219246935
8 0.001347683334311
9 -0.000174520677577
10 0.000153624720354
11 -0.000144491393277
12 -0.000009133327078
13 0.000017948571569
14 0.000077666700485
15 0.000033574017660
16 -0.70788875240181
17 -0.000882987159671
18 0.003662190162050
19 0.000501173082475
20 -0.000445388708826
21 -0.000316890184397
22 -0.000388219246935
23 0.001347683334311
24 0.000174520677577
25 -0.000153624720354
26 0.000144491393277
27 0.000009133327078
28 -0.000017948571569
29 0.000077666700485
30 0.000033574017660
31 -0.000221135829674
32 0.000072502730479
33 0.000472769090156
34 0.000069552259399
35 0.000303539360417
36 0.000221135829674
37 -0.000072502730479
38 0.000472769090156
39 0.000069552259399
40 -0.000303539360417
 Sym=      2.1
 Ene=      -1.3399
 Spin= Alpha
 Occup=    2.000000
1 -0.004136072187951
2 0.32835887359963
3 0.35112514350404
4 -0.14570023306631
5 0.020949634004864
6 -0.018941637799946
7 -0.11769418226619
8 0.037642048897210
9 -0.014281455645080
10 -0.007878407429158
11 0.011310711136597
12 -0.003432303707439
13 -0.000293596964597
14 -0.001445072518483
15 0.000741245368575
16 -0.004136072187951
17 0.32835887359963
18 0.35112514350404
19 0.14570023306631
20 -0.020949634004864
21 -0.018941637799946
22 0.11769418226619
23 -0.037642048897210
24 -0.014281455645080
25 -0.007878407429158
26 0.011310711136597
27 -0.003432303707439
28 -0.000293596964597
29 0.001445072518483
30 -0.000741245368575
31 0.006766476995173
32 -0.010359169204696
33 -0.012560146475433
34 0.000401579711199
35 -0.004649680131932
36 0.006766476995173
37 -0.010359169204696
38 0.012560146475433
39 -0.000401579711199
40 -0.004649680131932
 Sym=      2.2
 Ene=      -1.0241
 Spin= Alpha
 Occup=    2.000000
1 0.001124791411959
2 0.32542416023041
3 0.40043219606031
4 -0.19866493147692
5 0.083905081140603
6 -0.024716644068798
7 -0.13675652330456
8 0.040767615964058
9 -0.019488079810634
10 -0.000177276392184
11 -0.004071416217022
12 0.004248692609206
13 0.009469479818885
14 -0.002403819449255
15 0.000661011457916
16 -0.001124791411959
17 -0.32542416023041
18 -0.40043219606031
19 -0.19866493147692
20 0.083905081140603
21 0.024716644068798
22 -0.13675652330456
23 0.040767615964058
24 0.019488079810634
25 0.000177276392184
26 0.004071416217022
27 -0.004248692609206
28 -0.009469479818885
29 -0.002403819449255
30 0.000661011457916
31 -0.004332087262470
32 -0.023022776558213
33 -0.009474584568692
34 0.004131585429636
35 -0.003422755611723
36 0.004332087262470
37 0.023022776558213
38 -0.009474584568692
39 0.004131585429636
40 0.003422755611723
 Sym=      3.2
 Ene=      -0.9735
 Spin= Alpha
 Occup=    1.986631
1 0.001929909013439
2 0.14043218754586
3 0.047051368687417
4 0.32117965034094
5 0.025242630445180
6 0.088528701097531
7 0.15414486189139
8 -0.004423222537506
9 0.022529632563533
10 0.010476926454923
11 -0.008999241437429
12 -0.001477685017494
13 -0.009495999671245
14 0.009049271203488
15 0.002367891741886
16 -0.001929909013439
17 -0.14043218754586
18 -0.047051368687417
19 0.32117965034094
20 0.025242630445180
21 -0.088528701097531
22 0.15414486189139
23 -0.004423222537506
24 -0.022529632563533
25 -0.010476926454923
26 0.008999241437429
27 0.001477685017494
28 0.009495999671245
29 0.009049271203488
30 0.002367891741886
31 0.27450894882202
32 0.042063143045975
33 -0.032182953064045
34 -0.014118465175749
35 -0.023801943706161
36 -0.27450894882202
37 -0.042063143045975
38 -0.032182953064045
39 -0.014118465175749
40 0.023801943706161
 Sym=      3.1
 Ene=      -0.7901
 Spin= Alpha
 Occup=    1.983233
1 0.001406933492394
2 0.072043370991909
3 -0.066736890920864
4 0.37623849900475
5 -0.018962348804496
6 0.10727116590587
7 0.20940814550636
8 -0.030639987327432
9 0.028267858767502
10 0.009446239945158
11 -0.004543844785280
12 -0.004902395159878
13 0.005128399750235
14 0.009662766447118
15 -0.003071948090158
16 0.001406933492394
17 0.072043370991909
18 -0.066736890920864
19 -0.37623849900475
20 0.018962348804496
21 0.10727116590587
22 -0.20940814550636
23 0.030639987327432
24 0.028267858767502
25 0.009446239945158
26 -0.004543844785280
27 -0.004902395159878
28 0.005128399750235
29 -0.009662766447118
30 0.003071948090158
31 0.30034741630561
32 0.051846959476451
33 -0.029120293405422
34 -0.010367758091924
35 -0.025608102702801
36 0.30034741630561
37 0.051846959476451
38 0.029120293405422
39 0.010367758091924
40 -0.025608102702801
 Sym=      4.1
 Ene=      -0.6091
 Spin= Alpha
 Occup=    1.959528
1 -0.000596251428633
2 -0.025671178777157
3 -0.032064597499278
4 -0.16982963083566
5 0.022594344582149
6 0.40728248015092
7 -0.14014940294317
8 0.007250490867010
9 0.28272621898634
10 -0.004852861701895
11 -0.002908551820124
12 0.007761413522018
13 -0.000553519015270
14 0.005958253864549
15 -0.017323233941615
16 -0.000596251428633
17 -0.025671178777157
18 -0.032064597499278
19 0.16982963083566
20 -0.022594344582149
21 0.40728248015092
22 0.14014940294317
23 -0.007250490867010
24 0.28272621898634
25 -0.004852861701895
26 -0.002908551820124
27 0.007761413522018
28 -0.000553519015270
29 -0.005958253864549
30 0.017323233941615
31 0.030557845546903
32 0.006407740391565
33 -0.013465519662337
34 -0.004743826715919
35 0.012516012897370
36 0.030557845546903
37 0.006407740391565
38 0.013465519662337
39 0.004743826715919
40 0.012516012897370
 Sym=      5.1
 Ene=      -0.7261
 Spin= Alpha
 Occup=    1.940878
1 -0.002329787166542
2 0.006918733725592
3 -0.038943755446407
4 0.009463273686227
5 -0.45828681249801
6 0.028083665887817
7 0.034678270965067
8 -0.25605620143533
9 0.040887766752899
10 -0.014218664354722
11 0.027056330391724
12 -0.012837666037002
13 -0.008118884113218
14 0.000322462622623
15 -0.006391041928055
16 -0.002329787166542
17 0.006918733725592
18 -0.038943755446407
19 -0.009463273686227
20 0.45828681249801
21 0.028083665887817
22 -0.034678270965067
23 0.25605620143533
24 0.040887766752899
25 -0.014218664354722
26 0.027056330391724
27 -0.012837666037002
28 -0.008118884113218
29 -0.000322462622623
30 0.006391041928055
31 -0.077428455493988
32 -0.044894975930530
33 0.011742003665712
34 -0.008877775010990
35 0.007738643287541
36 -0.077428455493988
37 -0.044894975930530
38 -0.011742003665712
39 0.008877775010990
40 0.007738643287541
 Sym=      4.2
 Ene=      -0.3353
 Spin= Alpha
 Occup=    1.238212
1 -0.000387286719981
2 -0.041602128423958
3 -0.095293635274977
4 -0.14001978000379
5 -0.006562188232723
6 0.47107471573348
7 -0.11264023519502
8 -0.007087158937467
9 0.33290197723384
10 -0.004928289179615
11 -0.000733886280196
12 0.005662175459810
13 0.004966462761731
14 0.009513130419315
15 0.004576552313183
16 0.000387286719981
17 0.041602128423958
18 0.095293635274977
19 -0.14001978000379
20 -0.006562188232723
21 -0.47107471573348
22 -0.11264023519502
23 -0.007087158937467
24 -0.33290197723384
25 0.004928289179615
26 0.000733886280196
27 -0.005662175459810
28 -0.004966462761731
29 0.009513130419315
30 0.004576552313183
31 0.10022427690295
32 0.025604061313852
33 -0.019573555012325
34 -0.002362057571682
35 0.011551200968503
36 -0.10022427690295
37 -0.025604061313852
38 -0.019573555012325
39 -0.002362057571682
40 -0.011551200968503
 Sym=      5.2
 Ene=       0.1587
 Spin= Alpha
 Occup=    0.457635
1 -0.008132503450233
2 -0.17871540862088
3 -0.48450309125466
4 -0.055428073510352
5 0.53309254587679
6 -0.040262641739379
7 -0.037266343829889
8 0.48462275183398
9 -0.028162143056393
10 -0.010155993531836
11 0.017317329504165
12 -0.007161335972329
13 0.013167468951967
14 -0.000884336631956
15 0.006422226303878
16 0.008132503450233
17 0.17871540862088
18 0.48450309125466
19 -0.055428073510352
20 0.53309254587679
21 0.040262641739379
22 -0.037266343829889
23 0.48462275183398
24 0.028162143056393
25 0.010155993531836
26 -0.017317329504165
27 0.007161335972329
28 -0.013167468951967
29 -0.000884336631956
30 0.006422226303878
31 0.059133536167854
32 0.19886870377899
33 0.000086783919379
34 0.025764938455235
35 -0.000369200233307
36 -0.059133536167854
37 -0.19886870377899
38 0.000086783919379
39 0.025764938455235
40 0.000369200233307
 Sym=      6.1
 Ene=       0.1511
 Spin= Alpha
 Occup=    0.404612
1 0.002921431931013
2 -0.11655101492934
3 -0.52924418711082
4 -0.19296721306368
5 -0.070970827813985
6 -0.12640841095371
7 -0.17772698259767
8 -0.085329959227677
9 -0.12860522916095
10 0.002627335369601
11 -0.005297301586358
12 0.002669966216758
13 0.000034704011282
14 -0.001803852962791
15 0.004944724745330
16 0.002921431931013
17 -0.11655101492934
18 -0.52924418711082
19 0.19296721306368
20 0.070970827813985
21 -0.12640841095371
22 0.17772698259767
23 0.085329959227677
24 -0.12860522916095
25 0.002627335369601
26 -0.005297301586358
27 0.002669966216758
28 0.000034704011282
29 0.001803852962791
30 -0.004944724745330
31 0.16635289268550
32 0.79937971663171
33 0.017610402641807
34 0.000709325585358
35 0.012254199028682
36 0.16635289268550
37 0.79937971663171
38 -0.017610402641807
39 -0.000709325585358
40 0.012254199028682
 Sym=      6.2
 Ene=       0.5354
 Spin= Alpha
 Occup=    0.029271
1 -0.053105571490188
2 -0.18379037770132
3 -0.11442195599606
4 -0.40507566224320
5 -0.28465973634478
6 -0.22254752194788
7 -0.016078758370210
8 -0.019217718792993
9 -0.021439461257509
10 -0.013114201426550
11 0.004955639039349
12 0.008158562387201
13 -0.025317312726090
14 -0.005490072556346
15 0.000468846312766
16 0.053105571490188
17 0.18379037770132
18 0.11442195599606
19 -0.40507566224320
20 -0.28465973634478
21 0.22254752194788
22 -0.016078758370210
23 -0.019217718792993
24 0.021439461257509
25 0.013114201426550
26 -0.004955639039349
27 -0.008158562387201
28 0.025317312726090
29 -0.005490072556346
30 0.000468846312766
31 0.41212521682166
32 0.37188210597955
33 0.031505273109497
34 -0.006877558719435
35 0.019903653885642
36 -0.41212521682166
37 -0.37188210597955
38 0.031505273109497
39 -0.006877558719435
40 -0.019903653885642
 Sym=      7.2
 Ene=       0.6630
 Spin= Alpha
 Occup=    0.000000
1 -0.060416102568219
2 -0.16670757486424
3 0.33132807413465
4 -0.12802296222079
5 0.058759941290108
6 -0.12061413448419
7 0.24666091234442
8 0.27924856105185
9 0.11213647452227
10 0.031531240372788
11 -0.018893168026147
12 -0.012638072346640
13 0.029199585120999
14 0.057195209452047
15 0.010728419186278
16 0.060416102568219
17 0.16670757486424
18 -0.33132807413465
19 -0.12802296222079
20 0.058759941290108
21 0.12061413448419
22 0.24666091234442
23 0.27924856105185
24 -0.11213647452227
25 -0.031531240372788
26 0.018893168026147
27 0.012638072346640
28 -0.029199585120999
29 0.057195209452047
30 0.010728419186278
31 0.62452959665654
32 -1.34263674445892
33 0.17994954918327
34 0.039633664390022
35 0.11586332697007
36 -0.62452959665654
37 1.34263674445892
38 0.17994954918327
39 0.039633664390022
40 -0.11586332697007
 Sym=      7.1
 Ene=       0.8022
 Spin= Alpha
 Occup=    0.000000
1 -0.030534873490762
2 -0.085114127093133
3 0.26794277509700
4 -0.28207835349086
5 0.036392887383034
6 -0.11045384525497
7 -0.004571954199916
8 -0.091031074298228
9 0.010203550116039
10 0.050104559830374
11 -0.044470600433560
12 -0.005633959396814
13 0.015414271155491
14 0.064018379960061
15 0.028478138935837
16 -0.030534873490762
17 -0.085114127093133
18 0.26794277509700
19 0.28207835349086
20 -0.036392887383034
21 -0.11045384525497
22 0.004571954199916
23 0.091031074298228
24 0.010203550116039
25 0.050104559830374
26 -0.044470600433560
27 -0.005633959396814
28 0.015414271155491
29 -0.064018379960061
30 -0.028478138935837
31 0.79247265427928
32 -0.74770140263224
33 0.19757125405771
34 0.056768348376319
35 0.12468866567125
36 0.79247265427928
37 -0.74770140263224
38 -0.19757125405771
39 -0.056768348376319
40 0.12468866567125
 Sym=      8.2
 Ene=       1.0638
 Spin= Alpha
 Occup=    0.000000
1 0.005430662626559
2 -0.10381799536184
3 -0.80417341221160
4 0.41335497507220
5 -0.38255289469725
6 -0.015749148133904
7 -0.62941061847671
8 0.90401129933438
9 -0.22523909252666
10 0.016264251225504
11 -0.027540316663149
12 0.011276065437645
13 0.004976239626652
14 0.009819767401945
15 -0.003425025209946
16 -0.005430662626559
17 0.10381799536184
18 0.80417341221160
19 0.41335497507220
20 -0.38255289469725
21 0.015749148133904
22 -0.62941061847671
23 0.90401129933438
24 0.22523909252666
25 -0.016264251225504
26 0.027540316663149
27 -0.011276065437645
28 -0.004976239626652
29 0.009819767401945
30 -0.003425025209946
31 0.45476868620878
32 0.001732861567981
33 -0.098840443305523
34 -0.025064776591267
35 -0.050714718520679
36 -0.45476868620878
37 -0.001732861567981
38 -0.098840443305523
39 -0.025064776591267
40 0.050714718520679
 Sym=      8.1
 Ene=       1.1043
 Spin= Alpha
 Occup=    0.000000
1 0.037771585045269
2 0.14324857795337
3 0.38853979118698
4 -0.16955698158790
5 -0.21176360420691
6 -0.40320591297833
7 0.79243978994069
8 0.32069002099861
9 0.59980841712033
10 -0.033079519700974
11 0.054730074618254
12 -0.021650554917279
13 0.015335867017880
14 0.004729209238188
15 0.008099517389097
16 0.037771585045269
17 0.14324857795337
18 0.38853979118698
19 0.16955698158790
20 0.21176360420691
21 -0.40320591297833
22 -0.79243978994069
23 -0.32069002099861
24 0.59980841712033
25 -0.033079519700974
26 0.054730074618254
27 -0.021650554917279
28 0.015335867017880
29 -0.004729209238188
30 -0.008099517389097
31 -0.57833903218488
32 -0.12562186983094
33 0.12932158309709
34 0.17738663112220
35 0.12963191788747
36 -0.57833903218488
37 -0.12562186983094
38 -0.12932158309709
39 -0.17738663112220
40 0.12963191788747
 Sym=      9.2
 Ene=       1.1062
 Spin= Alpha
 Occup=    0.000000
1 -0.008063437182538
2 -0.034448400743746
3 -0.25583249501078
4 -0.24974230502168
5 -0.36585710197954
6 0.11589037430661
7 0.66596658953553
8 1.40439106644678
9 0.19997993470853
10 0.006355117778445
11 -0.025720640874988
12 0.019365523096542
13 -0.037994908018705
14 -0.017914748383483
15 0.002667481935832
16 0.008063437182538
17 0.034448400743746
18 0.25583249501078
19 -0.24974230502168
20 -0.36585710197954
21 -0.11589037430661
22 0.66596658953553
23 1.40439106644678
24 -0.19997993470853
25 -0.006355117778445
26 0.025720640874988
27 -0.019365523096542
28 0.037994908018705
29 -0.017914748383483
30 0.002667481935832
31 -0.48755708702112
32 -0.60049048516961
33 0.10604664820871
34 -0.13442873165096
35 0.064208989574626
36 0.48755708702112
37 0.60049048516961
38 0.10604664820871
39 -0.13442873165096
40 -0.064208989574626
 Sym=      9.1
 Ene=       1.1227
 Spin= Alpha
 Occup=    0.000000
1 0.012459215111632
2 0.030384030288651
3 -0.16375815352393
4 0.30050274512135
5 0.24958357854085
6 -0.49896849384215
7 -0.56300073318061
8 -0.23517489641581
9 0.38716947428531
10 0.024360244497305
11 -0.040379277877559
12 0.016019033380254
13 -0.010901920691348
14 -0.005420782575590
15 -0.005465553467650
16 0.012459215111632
17 0.030384030288651
18 -0.16375815352393
19 -0.30050274512135
20 -0.24958357854085
21 -0.49896849384215
22 0.56300073318061
23 0.23517489641581
24 0.38716947428531
25 0.024360244497305
26 -0.040379277877559
27 0.016019033380254
28 -0.010901920691348
29 0.005420782575590
30 0.005465553467650
31 0.15638711580755
32 -0.024325944068318
33 -0.005737156781905
34 -0.19373177085700
35 -0.016827100253360
36 0.15638711580755
37 -0.024325944068318
38 0.005737156781905
39 0.19373177085700
40 -0.016827100253360
 Sym=     10.2
 Ene=       1.1992
 Spin= Alpha
 Occup=    0.000000
1 -0.011239418627628
2 0.021775488498956
3 0.32528914981509
4 0.13432480128478
5 -0.049427490762639
6 -0.54753142055707
7 0.17756383454884
8 0.044682687943734
9 1.07489510440003
10 -0.002973895425331
11 -0.001135640283820
12 0.004109535709151
13 -0.001111592200702
14 -0.025418407206458
15 0.023689098299000
16 0.011239418627628
17 -0.021775488498956
18 -0.32528914981509
19 0.13432480128478
20 -0.049427490762639
21 0.54753142055707
22 0.17756383454884
23 0.044682687943734
24 -1.07489510440003
25 0.002973895425331
26 0.001135640283820
27 -0.004109535709151
28 0.001111592200702
29 -0.025418407206458
30 0.023689098299000
31 -0.47431379802609
32 -0.079334548020902
33 0.066397456747343
34 0.17542832485616
35 0.038010090006410
36 0.47431379802609
37 0.079334548020902
38 0.066397456747343
39 0.17542832485616
40 -0.038010090006410
 Sym=     10.1
 Ene=       1.2912
 Spin= Alpha
 Occup=    0.000000
1 -0.10497199085561
2 -0.28675363044902
3 0.39622486730263
4 0.32550280903984
5 -0.51355753053657
6 -0.047905051220014
7 -0.67577587221600
8 0.55074482943007
9 -0.031128357342736
10 -0.019574611037440
11 0.061948488179781
12 -0.042373877142341
13 -0.012545967931474
14 0.031214728467519
15 0.019149378489853
16 -0.10497199085561
17 -0.28675363044902
18 0.39622486730263
19 -0.32550280903984
20 0.51355753053657
21 -0.047905051220014
22 0.67577587221600
23 -0.55074482943007
24 -0.031128357342736
25 -0.019574611037440
26 0.061948488179781
27 -0.042373877142341
28 -0.012545967931474
29 -0.031214728467519
30 -0.019149378489853
31 0.37089198741205
32 -0.23955472988473
33 -0.014441605886587
34 0.022292794524317
35 0.038539435223513
36 0.37089198741205
37 -0.23955472988473
38 0.014441605886587
39 -0.022292794524317
40 0.038539435223513