[Molden Format]
[Molpro variables]
_NUMVAR=  784.0000000000000    
_AVOGAD= 0.6022136736000000E+24
_BOLTZ= 0.1380658000000000E-22
_CLIGHT=  29979245800.00000    
_EV2006= 0.3674930886769165E-01
_EV= 0.3674932534394180E-01
_ENULL= 0.8854187817000000E-11
_KJOULE= 0.3808798324128737E-03
_KJOULE/MOL= 0.3808798324128737E-03
_CM= 0.4556335267302901E-05
_CM-1= 0.4556335267302901E-05
_DEB2SI= 0.3335641000000000E-29
_AMU2AU=  1822.888390000000    
_KCAL= 0.1593601117815568E-02
_KCAL/MOL= 0.1593601117815568E-02
_KELVIN2006= 0.3166828861084835E-05
_KELVIN= 0.3166814820820034E-05
_JOULE= 0.4359748200000000E-17
_HERTZ2006= 0.1519829850815779E-15
_HERTZ= 0.1519829846011223E-15
_HZ2006= 0.1519829850815779E-15
_HZ= 0.1519829846011223E-15
_JPCAL=  4.184000000000000    
_PLANCK= 0.6626075540000000E-33
_TOA2006= 0.5291772490000000    
_TOA= 0.5291772090000000    
_TOANG2006= 0.5291772490000000    
_TOANG= 0.5291772090000000    
_TORAD= 0.1745329251994330E-01
_TOCM=  219474.6306700000    
_TODEBYE=  2.541580000000000    
_TOEV2006=  27.21139610000000    
_TOE= 0.4803242000000000E-09
_TOEV=  27.21138390000000    
_TOHERTZ2006=  6579683899900000.    
_TOHERTZ=  6579683920700000.    
_TOHZ2006=  6579683899900000.    
_TOHZ=  6579683920700000.    
_TOK2006=  315773.3000000000    
_TOK=  315774.7000000000    
_TOKCAL=  627.5096000000000    
_TOKELVIN2006=  315773.3000000000    
_TOKELVIN=  315774.7000000000    
_TOKJ=  2625.500000000000    
_TOKJOULE=  2625.500000000000    
_TOKG= 0.1660565586000000E-26
_ANG2006=  1.889725988578923    
_ANG=  1.889726131421507    
_ANGSTROM2006=  1.889725988578923    
_ANGSTROM=  1.889726131421507    
_RPAREF=  0.000000000000000    
_RPADISS=  0.000000000000000    
_IGNORE_UNDEF=  2.000000000000000    
_STRICTCHECK=  0.000000000000000    
_SEW_ONEEL=  0.000000000000000    
_CPPDONE=FALSE
_DKROLL_DONE=  0.000000000000000    
_FOCKDONE=TRUE
_GRADONE=FALSE
_HESSDONE=FALSE
_INTDONE=TRUE
_SCFDONE=TRUE
_MODUL_BLOCK=FALSE
_MODUL_CUDA=FALSE
_MODUL_SLATER=FALSE
_MODUL_MRCC=FALSE
_MODUL_NBO6=FALSE
_MODUL_NECI=TRUE
_MODUL_AIMS=TRUE
_MRCC_EXEC=
_FITC_AO_SAVED=FALSE
_FITC_MO_SAVED=FALSE
_SHARED_FS=TRUE
_LSTYP=SEWARD
_INTYP=INTS
_GEOMTYP=ZMAT
_GRADTYP=ALASKA
_DIRECT=FALSE
_DKHO= -1.000000000000000    
_SYNCM=  0.000000000000000    
_BASIS=USERDEF
_ZORIENT=  1.000000000000000    
_NELEC=  18.00000000000000    
!SPIN=  0.000000000000000    
_QSDSTEP=  0.000000000000000    
_QSDIRC=  0.000000000000000    
_PROGRAM=HF-SCF
_CPUSTEP= 0.6000000000000000E-01
_SYSSTEP= 0.9999999999999981E-02
_WALLSTEP= 0.3900000000000000    
!DFSCF=  0.000000000000000    
!SCSGRD=  0.000000000000000    
_BASINP=  610.0000000000000    
_CPUTOT= 0.3600000000000000    
_CPUSORT= 0.4000000000000004E-01
_SYSSORT= 0.7000000000000001E-01
_WALLSORT= 0.1499999985098839    
_DFTEXFAC=  1.000000000000000    
_DMX= 0.7443828750091896    
_DMY=  0.000000000000000    
_DMZ=  0.000000000000000    
_DMX_SCF= 0.7443828750091896    
_DMY_SCF=  0.000000000000000    
_DMZ_SCF=  0.000000000000000    
_EHOMO=-0.4665071449575350    
_ELUMO= 0.1919357610553415    
_ENERGY= -150.7867668270569    
_ENUC=  38.06106386395650    
_EPS1= -20.61667115142944    
_EPS2= -20.61633259179666    
_GRADEXFAC=  9999.000000000000    
_GRADMETHOD=  1.000000000000000    
_NMRMETHOD=  0.000000000000000    
!GRID_FREEZE= -1.000000000000000    
_ITERATIONS=  9.000000000000000    
_LASTNELEC=  18.00000000000000    
_LASTSPIN=  0.000000000000000    
_LASTSYM=  1.000000000000000    
_MPP_PROG=  0.000000000000000    
_NPROC_MPP=  1.000000000000000    
_NPROC_MPPX=  1.000000000000000    
_NPROC_SMP=  16.00000000000000    
_NUMSTEP=  0.000000000000000    
_ORBITAL=  2100.200000000000    
_PI=  3.141592653589793    
_SEIG_MIN= 0.2212598707150783E-01
_SEWPROP=TRUE
_STATUS=  1.000000000000000    
_SYSTOT= 0.1100000000000000    
_VERSION=  2012001.000000000    
_WALLTOT=  2.190000000000000    
_DATE=24-Jan-19
_LASTORB=RHF
_MACHINE=Linux-4.9.0-8-amd64/nympha18.meta.zcu.cz(x86_64) (16 PROC) 64 bit serial version
_OUTPUT=/auto/brno2/home/masiz4am/git/UKRmol-in/tests/suite/C2_target_HF3/molpro.xml
_PGROUP=C2
_TIME=16:16:13
_LIBMOL=/afs/ics.muni.cz/software/molpro-2012.1/molprop_2012_1_Linux_x86_64_i8/lib/
!VIBCNT=  0.000000000000000    
!RGHFCNT=  0.000000000000000    
!SURFREC=  0.000000000000000    
!POLYREC=  0.000000000000000    
!DIPREC=  0.000000000000000    
!VSCFREC=  0.000000000000000    
!VCIREC=  0.000000000000000    
!PVCIREC=  0.000000000000000    
!VMP2REC=  0.000000000000000    
!VMCSCFREC=  0.000000000000000    
!VMRCIREC=  0.000000000000000    
!VIBINFO=  0.000000000000000    
!GAREC=  0.000000000000000    
!SCFORB=  21002.00000000000    
!NEWMOL= -1.000000000000000    
!NEWSYM= -1.000000000000000    
_SLFILES=slscratch
_NGSSTO=  9.000000000000000    
_SIN=SIN
_COS=COS
_TAN=TAN
_ACOS=ACOS
_ASIN=ASIN
_ATAN=ATAN
_COSH=COSH
_SINH=SINH
_TANH=TANH
_ABS=ABS
_MOD=MOD
_ERF=ERF
_REFC=REFC
_ERFC=ERFC
_HYPOT=HYPOT
_J0=J0
_J1=J1
_JN=JN
_GAMMA=GAMMA
_LGAMMA=LGAMMA
_Y0=Y0
_Y1=Y1
_YN=YN
_EXP=EXP
_LOG=LOG
_LOG10=LOG10
_SQRT=SQRT
_INT=INT
_NINT=NINT
_MAX=MAX
_MIN=MIN
_COSMO=  0.000000000000000    
_COSMOIT=  0.000000000000000    
_COSMOES=  0.000000000000000    
_COSMOEDS=  0.000000000000000    
_COSMOEC=  0.000000000000000    
_COSMOEDCORR=  0.000000000000000    
_FEPSI=  1.000000000000000    
_SL_IsMM=  0.000000000000000    
_SL_NSYM=  2.000000000000000    
_SL_System_BitSw=  0.000000000000000    
_SL_Unique_atoms=  0.000000000000000    
_SL_GRAD=  0.000000000000000    
_SL_MAXUPD_Hess=  5.000000000000000    
_SL_N_PRINT_COD=  5.000000000000000    
_SL_PRINT_CODES=  0.000000000000000    
_SL_BasType=  0.000000000000000    
_SL_Energy_Pred=  0.000000000000000    
_SL_New_Coords=  0.000000000000000    
_SL_Total_Nuclea=  0.000000000000000    
_SL_Highest_Mltp=  0.000000000000000    
_SL_Ref_Geom=  0.000000000000000    
_SL_Symmetry_ope=  1.000000000000000    
_SL_agrad=  0.000000000000000    
_SL_GrdMax=  0.000000000000000    
_SL_GrdNorm=  0.000000000000000    
_SL_GrdRMS=  0.000000000000000    
!LATTICE= -1.000000000000000    
!NEWLATTICE=  0.000000000000000    
!LATGRAD_VAR=FALSE
!SEW_LATTICE=  1.000000000000000    
!LOCAL=  0.000000000000000    
!SAVEDOM= -1.000000000000000    
!RESTDOM= -1.000000000000000    
!SAVEDOM_HF= -1.000000000000000    
!RESTDOM_HF= -1.000000000000000    
!HESSREC=  0.000000000000000    
!FREQREC=  0.000000000000000    
!NMODREC=  0.000000000000000    
!GTASKS=  0.000000000000000    
!HTASKS=  0.000000000000000    
!THRCHG= 0.1000000000000000    
!DEBUG= -1.000000000000000    
!CFIT_CPHF=  0.000000000000000    
!RDOMAUX_CPHF=  3.000000000000000    
!THRAO_CPHF= 0.1000000000000000E-09
!THRMO_CPHF= 0.1000000000000000E-08
!THROV_CPHF= 0.1000000000000000E-11
!THRSW_CPHF= 0.1000000000000000E-09
!THRPROD_CPHF= 0.1000000000000000E-08
!THRAOPR_CPHF= 0.1000000000000000E-11
!CFIT_SCFGRD=  0.000000000000000    
!RDOMAUX_SCFGRD=  5.000000000000000    
!THRAO_SCFGRD= 0.1000000000000000E-09
!THRMO_SCFGRD= 0.1000000000000000E-08
!THROV_SCFGRD= 0.1000000000000000E-11
!THRSW_SCFGRD= 0.1000000000000000E-09
!THRPROD_SCFGRD= 0.1000000000000000E-08
!THRAOPR_SCFGRD= 0.1000000000000000E-11
!LOCFIT_SCF=  0.000000000000000    
!LOCFIT_MP2= -1.000000000000000    
_RIDOM=  0.000000000000000    
!CC2_METHOD=  0.000000000000000    
_BASIS2006=FALSE
_SVDDEL= -1.000000000000000    
_SVDDELA= -1.000000000000000    
_SVDDELP= -1.000000000000000    
_SVDDELF= -1.000000000000000    
_SVDDELS= -1.000000000000000    
_SVDDEL_ABS= -1.000000000000000    
_SVDDELA_ABS= -1.000000000000000    
_SVDDELP_ABS= -1.000000000000000    
_SVDDELF_ABS= -1.000000000000000    
_SVDDELS_ABS= -1.000000000000000    
_MAXBASIS=  0.000000000000000    
!OPT_CONICAL=  0.000000000000000    
!CLEARSP_JGRID=  0.000000000000000    
_4EXT_NDISKS=  1.000000000000000    
!ZMP=  0.000000000000000    
_MAXIT_ZMP=  500.0000000000000    
_MAXDIS_ZMP=  100.0000000000000    
_ACCU_ZMP=  14.00000000000000    
_SHIFTA_ZMP= -100.0000000000000    
!EMBEDFLAG=  1.000000000000000    
!EMBED=FALSE
!EMBED_F12=FALSE
!EMBEDNUC=  0.000000000000000    
_EMBEDENERGY=  0.000000000000000    
_KSPACETIME=  0.000000000000000    
_RSPACETIME=  0.000000000000000    
!EMBED_DFC=FALSE
!NUM_VOIDS=  0.000000000000000    
_IBODY=  0.000000000000000    
_EMBE_TOTAL=  0.000000000000000    
_EMBE_HF=  0.000000000000000    
_EMBE_CORR=  0.000000000000000    
!EDFT=  0.000000000000000    
_IFASTLATGRAD=  0.000000000000000    
_SINDEX=  0.000000000000000    
GX1=-0.1043128750000000    
GY1=  1.315816206000000    
GZ1=  0.000000000000000    
GX2= 0.8345029970000000    
GY2=  1.699052636000000    
GZ2=  1.477198805000000    
GX3=-0.1043128750000000    
GY3= -1.315816206000000    
GZ3=  0.000000000000000    
GX4= 0.8345029970000000    
GY4= -1.699052636000000    
GZ4= -1.477198805000000    
[Atoms] Angs
O     1    8        -0.0551999961        0.6962999474        0.0000000000
H     2    1         0.4415999669        0.8990999319        0.7816999408
O     3    8        -0.0551999961       -0.6962999474        0.0000000000
H     4    1         0.4415999669       -0.8990999319       -0.7816999408
[GTO]
  1 0
 s    8  1.00
  0.1172000000D+05  0.7096459465D-03
  0.1759000000D+04  0.5467272292D-02
  0.4008000000D+03  0.2782311861D-01
  0.1137000000D+03  0.1047477397D+00
  0.3703000000D+02  0.2829208464D+00
  0.1327000000D+02  0.4484952387D+00
  0.5025000000D+01  0.2708168852D+00
  0.1013000000D+01  0.1545029161D-01
 s    8  1.00
  0.1172000000D+05 -0.3144434117D-03
  0.1759000000D+04 -0.2482137681D-02
  0.4008000000D+03 -0.1231635538D-01
  0.1137000000D+03 -0.5053891734D-01
  0.3703000000D+02 -0.1393849033D+00
  0.1327000000D+02 -0.3250774948D+00
  0.5025000000D+01 -0.2298483076D+00
  0.1013000000D+01  0.1095379347D+01
 s    1  1.00
  0.3023000000D+00  0.1000000000D+01
 p    3  1.00
  0.1770000000D+02  0.6267916628D-01
  0.3854000000D+01  0.3335365659D+00
  0.1046000000D+01  0.7412396416D+00
 p    1  1.00
  0.2753000000D+00  0.1000000000D+01
 d    1  1.00
  0.1185000000D+01  0.1000000000D+01
  
  3 0
 s    8  1.00
  0.1172000000D+05  0.7096459465D-03
  0.1759000000D+04  0.5467272292D-02
  0.4008000000D+03  0.2782311861D-01
  0.1137000000D+03  0.1047477397D+00
  0.3703000000D+02  0.2829208464D+00
  0.1327000000D+02  0.4484952387D+00
  0.5025000000D+01  0.2708168852D+00
  0.1013000000D+01  0.1545029161D-01
 s    8  1.00
  0.1172000000D+05 -0.3144434117D-03
  0.1759000000D+04 -0.2482137681D-02
  0.4008000000D+03 -0.1231635538D-01
  0.1137000000D+03 -0.5053891734D-01
  0.3703000000D+02 -0.1393849033D+00
  0.1327000000D+02 -0.3250774948D+00
  0.5025000000D+01 -0.2298483076D+00
  0.1013000000D+01  0.1095379347D+01
 s    1  1.00
  0.3023000000D+00  0.1000000000D+01
 p    3  1.00
  0.1770000000D+02  0.6267916628D-01
  0.3854000000D+01  0.3335365659D+00
  0.1046000000D+01  0.7412396416D+00
 p    1  1.00
  0.2753000000D+00  0.1000000000D+01
 d    1  1.00
  0.1185000000D+01  0.1000000000D+01
  
  2 0
 s    3  1.00
  0.1301000000D+02  0.3349872639D-01
  0.1962000000D+01  0.2348008012D+00
  0.4446000000D+00  0.8136829579D+00
 s    1  1.00
  0.1220000000D+00  0.1000000000D+01
 p    1  1.00
  0.7270000000D+00  0.1000000000D+01
  
  4 0
 s    3  1.00
  0.1301000000D+02  0.3349872639D-01
  0.1962000000D+01  0.2348008012D+00
  0.4446000000D+00  0.8136829579D+00
 s    1  1.00
  0.1220000000D+00  0.1000000000D+01
 p    1  1.00
  0.7270000000D+00  0.1000000000D+01
 
 
[MO]
 Sym=      1.1
 Ene=     -20.6167
 Spin= Alpha
 Occup=    2.000000
1 0.70777801065368
2 0.000849780827673
3 -0.002157594967710
4 0.000594423176419
5 -0.000855214891577
6 0.000827267281582
7 -0.000262962577625
8 0.000378703647921
9 -0.000414584420964
10 0.000160232707088
11 -0.000337856537060
12 0.000177623829971
13 0.000011826348417
14 0.000024719441573
15 0.000054080322545
16 0.70777801065368
17 0.000849780827673
18 -0.002157594967710
19 0.000594423176419
20 0.000855214891577
21 -0.000827267281582
22 -0.000262962577625
23 -0.000378703647921
24 0.000414584420964
25 0.000160232707088
26 -0.000337856537060
27 0.000177623829971
28 -0.000011826348417
29 -0.000024719441573
30 0.000054080322545
31 -0.000058758773001
32 0.000574893365916
33 0.000247646361482
34 -0.000039648627081
35 0.000381637002704
36 -0.000058758773001
37 0.000574893365916
38 0.000247646361482
39 0.000039648627081
40 -0.000381637002704
 Sym=      1.2
 Ene=     -20.6163
 Spin= Alpha
 Occup=    2.000000
1 0.70786233907138
2 0.000938815912461
3 -0.003586549248319
4 0.000592629258128
5 -0.000600396694383
6 0.000825983015086
7 -0.000241281789352
8 0.001499700727807
9 -0.000223041189716
10 0.000117368260454
11 -0.000269419204272
12 0.000152050943818
13 0.000031044825385
14 0.000036881515839
15 0.000012089840979
16 -0.70786233907138
17 -0.000938815912461
18 0.003586549248319
19 -0.000592629258128
20 -0.000600396694383
21 0.000825983015086
22 0.000241281789352
23 0.001499700727807
24 -0.000223041189716
25 -0.000117368260454
26 0.000269419204272
27 -0.000152050943818
28 0.000031044825385
29 0.000036881515839
30 -0.000012089840979
31 0.000034250320357
32 0.000073766610786
33 0.000306305180626
34 0.000076370445331
35 0.000467359534993
36 -0.000034250320357
37 -0.000073766610786
38 -0.000306305180626
39 0.000076370445331
40 0.000467359534993
 Sym=      2.1
 Ene=      -1.4984
 Spin= Alpha
 Occup=    2.000000
1 -0.006674939813648
2 0.31555333931639
3 0.28520042203785
4 0.024290875749736
5 -0.086380490338141
6 0.028039237094744
7 0.003885898878614
8 -0.035619468908925
9 -0.006543116825783
10 -0.009029386147931
11 0.015941604395204
12 -0.006912218247273
13 -0.002138412781746
14 0.002407429011164
15 0.000131428398256
16 -0.006674939813648
17 0.31555333931639
18 0.28520042203785
19 0.024290875749736
20 0.086380490338141
21 -0.028039237094744
22 0.003885898878614
23 0.035619468908925
24 0.006543116825783
25 -0.009029386147931
26 0.015941604395204
27 -0.006912218247273
28 0.002138412781746
29 -0.002407429011164
30 0.000131428398256
31 0.11260496119727
32 -0.003957499867153
33 -0.013287992188591
34 -0.005725103327347
35 -0.020494583249156
36 0.11260496119727
37 -0.003957499867153
38 -0.013287992188591
39 0.005725103327347
40 0.020494583249156
 Sym=      2.2
 Ene=      -1.2037
 Spin= Alpha
 Occup=    2.000000
1 -0.001596159910040
2 0.32474235969043
3 0.33055225357229
4 0.037909818476128
5 0.082649964852436
6 0.072045216112550
7 -0.000107515307282
8 0.031147170209055
9 0.006204352511054
10 0.003214641705227
11 -0.010209010478018
12 0.006994368772791
13 0.002272814267597
14 0.004286171954297
15 0.000340350170875
16 0.001596159910040
17 -0.32474235969043
18 -0.33055225357229
19 -0.037909818476128
20 0.082649964852436
21 0.072045216112550
22 0.000107515307282
23 0.031147170209055
24 0.006204352511054
25 -0.003214641705227
26 0.010209010478018
27 -0.006994368772791
28 0.002272814267597
29 0.004286171954297
30 -0.000340350170875
31 0.18701075675117
32 0.008083517392329
33 -0.018759469478550
34 -0.006279547001877
35 -0.029563617247204
36 -0.18701075675117
37 -0.008083517392329
38 0.018759469478550
39 -0.006279547001877
40 -0.029563617247204
 Sym=      3.1
 Ene=      -0.7245
 Spin= Alpha
 Occup=    2.000000
1 0.001366399734334
2 -0.021957264428211
3 -0.084896999023837
4 0.28097660427653
5 0.23160750461894
6 0.14853781847644
7 0.15370228663069
8 0.12233672252499
9 0.053323827212962
10 0.012247633101470
11 -0.025143912931546
12 0.012896279830076
13 -0.006251260437400
14 0.010386778111057
15 0.006524624792105
16 0.001366399734334
17 -0.021957264428211
18 -0.084896999023837
19 0.28097660427653
20 -0.23160750461894
21 -0.14853781847644
22 0.15370228663069
23 -0.12233672252499
24 -0.053323827212962
25 0.012247633101470
26 -0.025143912931546
27 0.012896279830076
28 0.006251260437400
29 -0.010386778111057
30 0.006524624792105
31 0.25726627980353
32 0.049239011194242
33 -0.011268147200337
34 -0.002914929958600
35 -0.031173857013946
36 0.25726627980353
37 0.049239011194242
38 -0.011268147200337
39 0.002914929958600
40 0.031173857013946
 Sym=      3.2
 Ene=      -0.7121
 Spin= Alpha
 Occup=    2.000000
1 0.000204736375057
2 -0.11409570100876
3 -0.22460076264045
4 0.056622722011603
5 -0.044765551224311
6 0.37221952416280
7 0.013442358292484
8 -0.040877202063728
9 0.21567759282892
10 -0.003990095571710
11 -0.003971040369877
12 0.007961135941586
13 0.000983428606071
14 0.009649024263416
15 -0.014944408720454
16 -0.000204736375057
17 0.11409570100876
18 0.22460076264045
19 -0.056622722011603
20 -0.044765551224311
21 0.37221952416280
22 -0.013442358292484
23 -0.040877202063728
24 0.21567759282892
25 0.003990095571710
26 0.003971040369877
27 -0.007961135941586
28 0.000983428606071
29 0.009649024263416
30 0.014944408720454
31 0.20287375852456
32 0.035832361073823
33 -0.016226085036581
34 -0.013799880677142
35 -0.016083295234770
36 -0.20287375852456
37 -0.035832361073823
38 0.016226085036581
39 -0.013799880677142
40 -0.016083295234770
 Sym=      4.1
 Ene=      -0.6158
 Spin= Alpha
 Occup=    2.000000
1 -0.003189086847475
2 -0.071236724771727
3 -0.10740949520292
4 0.29179524248200
5 -0.31767614991698
6 -0.070960127434882
7 0.21484289139798
8 -0.20352645101673
9 -0.038788512030304
10 -0.005236636894649
11 0.020041331653623
12 -0.014804694758974
13 -0.016283446340440
14 0.004319726846760
15 -0.005841760556664
16 -0.003189086847475
17 -0.071236724771727
18 -0.10740949520292
19 0.29179524248200
20 0.31767614991698
21 0.070960127434882
22 0.21484289139798
23 0.20352645101673
24 0.038788512030304
25 -0.005236636894649
26 0.020041331653623
27 -0.014804694758974
28 0.016283446340440
29 -0.004319726846760
30 -0.005841760556664
31 -0.038218939052352
32 -0.030202942909461
33 0.015824822993132
34 -0.009877557305391
35 0.001496889795951
36 -0.038218939052352
37 -0.030202942909461
38 0.015824822993132
39 0.009877557305391
40 -0.001496889795951
 Sym=      5.1
 Ene=      -0.5042
 Spin= Alpha
 Occup=    2.000000
1 0.000734299350776
2 -0.070510943104451
3 -0.17283616609773
4 -0.12587949976771
5 -0.18535579579821
6 0.39583364089527
7 -0.10358298485809
8 -0.13319530734675
9 0.28163465235230
10 -0.012205376470928
11 0.005851028822684
12 0.006354347648245
13 0.003031159298168
14 0.006218796044472
15 0.000879694794591
16 0.000734299350776
17 -0.070510943104451
18 -0.17283616609773
19 -0.12587949976771
20 0.18535579579821
21 -0.39583364089527
22 -0.10358298485809
23 0.13319530734675
24 -0.28163465235230
25 -0.012205376470928
26 0.005851028822684
27 0.006354347648245
28 -0.003031159298168
29 -0.006218796044472
30 0.000879694794591
31 0.15965386730577
32 0.002938911682059
33 -0.019446595572912
34 -0.007913639999452
35 -0.000794725181612
36 0.15965386730577
37 0.002938911682059
38 -0.019446595572912
39 0.007913639999452
40 0.000794725181612
 Sym=      4.2
 Ene=      -0.4665
 Spin= Alpha
 Occup=    2.000000
1 -0.000760822497965
2 -0.044584335090352
3 -0.096277971556801
4 0.46170173329194
5 -0.017185030222532
6 -0.11673832650775
7 0.34781303134112
8 -0.024159394247039
9 -0.10878614969685
10 0.007775247236513
11 -0.002576160722734
12 -0.005199086513779
13 0.003745733057842
14 0.008999856865058
15 0.005437166203337
16 0.000760822497965
17 0.044584335090352
18 0.096277971556801
19 -0.46170173329194
20 -0.017185030222532
21 -0.11673832650775
22 -0.34781303134112
23 -0.024159394247039
24 -0.10878614969685
25 -0.007775247236513
26 0.002576160722734
27 0.005199086513779
28 0.003745733057842
29 0.008999856865058
30 -0.005437166203337
31 0.11751510964452
32 0.029536379581950
33 0.014055307630559
34 -0.001474615436400
35 -0.021290363191653
36 -0.11751510964452
37 -0.029536379581950
38 -0.014055307630559
39 -0.001474615436400
40 -0.021290363191653
 Sym=      6.1
 Ene=       0.1919
 Spin= Alpha
 Occup=    0.000000
1 0.029400928977530
2 -0.051865949736698
3 -0.64207762831143
4 -0.083211435225974
5 -0.065222696565127
6 -0.11504799120544
7 -0.15574822284920
8 -0.095379280287841
9 -0.21842726389066
10 0.001258130725077
11 0.002320088345881
12 -0.003578219070958
13 0.000434056528034
14 -0.008996663030628
15 -0.003237974140818
16 0.029400928977530
17 -0.051865949736698
18 -0.64207762831143
19 -0.083211435225974
20 0.065222696565127
21 0.11504799120544
22 -0.15574822284920
23 0.095379280287841
24 0.21842726389066
25 0.001258130725077
26 0.002320088345881
27 -0.003578219070958
28 -0.000434056528034
29 0.008996663030628
30 -0.003237974140818
31 0.048350765792284
32 0.94331210298993
33 -0.008155484178216
34 -0.005806672856818
35 -0.013915040971060
36 0.048350765792284
37 0.94331210298993
38 -0.008155484178216
39 0.005806672856818
40 0.013915040971060
 Sym=      5.2
 Ene=       0.2007
 Spin= Alpha
 Occup=    0.000000
1 0.020757803739773
2 -0.084650913729676
3 -0.59799305863232
4 -0.080070243491793
5 0.13277928989567
6 -0.12563155388324
7 -0.14834326391925
8 0.084298938826323
9 -0.27206069726669
10 -0.002830480858634
11 0.013011640643113
12 -0.010181159784479
13 0.000370751506557
14 -0.007215160495306
15 0.004666381791558
16 -0.020757803739773
17 0.084650913729676
18 0.59799305863232
19 0.080070243491793
20 0.13277928989567
21 -0.12563155388324
22 0.14834326391925
23 0.084298938826323
24 -0.27206069726669
25 0.002830480858634
26 -0.013011640643113
27 0.010181159784479
28 0.000370751506557
29 -0.007215160495306
30 -0.004666381791558
31 0.060265671939937
32 1.05448722463037
33 -0.015699396559974
34 0.013837990647663
35 -0.021781937308993
36 -0.060265671939937
37 -1.05448722463037
38 0.015699396559974
39 0.013837990647663
40 -0.021781937308993
 Sym=      6.2
 Ene=       0.3477
 Spin= Alpha
 Occup=    0.000000
1 -0.001328306406991
2 -0.12200845219549
3 -0.39368306932613
4 0.043548123578693
5 0.44287922296141
6 0.083462264173128
7 0.088276465498531
8 0.84879282748068
9 0.14183077495312
10 -0.007218342864164
11 0.013976223643446
12 -0.006757880779283
13 0.006590689081456
14 -0.000391410247869
15 0.005424951101151
16 0.001328306406991
17 0.12200845219549
18 0.39368306932613
19 -0.043548123578693
20 0.44287922296141
21 0.083462264173128
22 -0.088276465498531
23 0.84879282748068
24 0.14183077495312
25 0.007218342864164
26 -0.013976223643446
27 0.006757880779283
28 0.006590689081456
29 -0.000391410247869
30 -0.005424951101151
31 -0.043077563669443
32 -0.51544328242042
33 -0.003245068314592
34 0.022477620118983
35 -0.002739303340482
36 0.043077563669443
37 0.51544328242042
38 0.003245068314592
39 0.022477620118983
40 -0.002739303340482
 Sym=      7.2
 Ene=       0.8341
 Spin= Alpha
 Occup=    0.000000
1 -0.046890938517987
2 -0.18432452838160
3 0.14072927967856
4 -0.18516092370224
5 0.071223210799002
6 -0.13914057823699
7 -0.077586818809829
8 -0.073447161780251
9 -0.092594886984650
10 -0.018833631176014
11 -0.015498830182817
12 0.034332461358831
13 0.009102222920584
14 0.067398503597674
15 0.046430956983792
16 0.046890938517987
17 0.18432452838160
18 -0.14072927967856
19 0.18516092370224
20 0.071223210799002
21 -0.13914057823699
22 0.077586818809829
23 -0.073447161780251
24 -0.092594886984650
25 0.018833631176014
26 0.015498830182817
27 -0.034332461358831
28 0.009102222920584
29 0.067398503597674
30 -0.046430956983792
31 0.88988527694530
32 -0.72443929592619
33 0.11464778710730
34 0.070367978748106
35 0.18044961156004
36 -0.88988527694530
37 0.72443929592619
38 -0.11464778710730
39 0.070367978748106
40 0.18044961156004
 Sym=      7.1
 Ene=       0.8409
 Spin= Alpha
 Occup=    0.000000
1 -0.024836550557196
2 -0.095532547021710
3 0.15204914416934
4 -0.11743700208478
5 0.025647040837020
6 -0.30219389439422
7 -0.034261406436434
8 -0.11293709929788
9 -0.077000253028306
10 -0.005382380817210
11 -0.044916339751526
12 0.050298720568736
13 0.029214753558961
14 0.062674761767248
15 0.014626365107197
16 -0.024836550557196
17 -0.095532547021710
18 0.15204914416934
19 -0.11743700208478
20 -0.025647040837020
21 0.30219389439422
22 -0.034261406436434
23 0.11293709929788
24 0.077000253028306
25 -0.005382380817210
26 -0.044916339751526
27 0.050298720568736
28 -0.029214753558961
29 -0.062674761767248
30 0.014626365107197
31 0.82259537964570
32 -0.58783862238379
33 0.12985382339722
34 0.055220233498036
35 0.20327934021561
36 0.82259537964570
37 -0.58783862238379
38 0.12985382339722
39 -0.055220233498036
40 -0.20327934021561
 Sym=      8.2
 Ene=       1.1196
 Spin= Alpha
 Occup=    0.000000
1 0.007464063641020
2 -0.071801556674171
3 -0.74411556347759
4 -0.013419202620546
5 -0.45362428223781
6 0.43423201289662
7 -0.18346787116113
8 0.86893379175902
9 -0.59977513251319
10 0.015577303703032
11 -0.029919090785614
12 0.014341787082582
13 -0.004774113832533
14 0.002760466344624
15 -0.003429652079013
16 -0.007464063641020
17 0.071801556674171
18 0.74411556347759
19 0.013419202620546
20 -0.45362428223781
21 0.43423201289662
22 0.18346787116113
23 0.86893379175902
24 -0.59977513251319
25 -0.015577303703032
26 0.029919090785614
27 -0.014341787082582
28 -0.004774113832533
29 0.002760466344624
30 0.003429652079013
31 0.35373316453166
32 0.017915224786539
33 -0.058090219010495
34 -0.037021940935902
35 -0.11575321130237
36 -0.35373316453166
37 -0.017915224786539
38 0.058090219010495
39 -0.037021940935902
40 -0.11575321130237
 Sym=      8.1
 Ene=       1.1423
 Spin= Alpha
 Occup=    0.000000
1 0.033421958482178
2 0.12663029049016
3 0.39751047989389
4 -0.33571036735491
5 -0.24437703804576
6 -0.22090394952214
7 0.53560165013414
8 0.33550691596657
9 0.85291288778229
10 -0.023487197500200
11 0.058330584820844
12 -0.034843387320644
13 0.010303867481313
14 0.008295201616518
15 0.016629728968782
16 0.033421958482178
17 0.12663029049016
18 0.39751047989389
19 -0.33571036735491
20 0.24437703804576
21 0.22090394952214
22 0.53560165013414
23 -0.33550691596657
24 -0.85291288778229
25 -0.023487197500200
26 0.058330584820844
27 -0.034843387320644
28 -0.010303867481313
29 -0.008295201616518
30 0.016629728968782
31 -0.57360875698138
32 -0.10663389062550
33 0.14336932207063
34 0.21367441060326
35 0.13401722274018
36 -0.57360875698138
37 -0.10663389062550
38 0.14336932207063
39 -0.21367441060326
40 -0.13401722274018
 Sym=      9.1
 Ene=       1.1530
 Spin= Alpha
 Occup=    0.000000
1 0.010886613547049
2 0.033412857569657
3 -0.083214636642355
4 -0.54898832164465
5 0.21274235181867
6 0.27550256396868
7 0.46795696962448
8 -0.17296518871468
9 -0.44666362494649
10 0.012431096281042
11 -0.032420796104582
12 0.019989699823540
13 -0.004867966101512
14 -0.004067417870720
15 -0.008268581830256
16 0.010886613547049
17 0.033412857569657
18 -0.083214636642355
19 -0.54898832164465
20 -0.21274235181867
21 -0.27550256396868
22 0.46795696962448
23 0.17296518871468
24 0.44666362494649
25 0.012431096281042
26 -0.032420796104582
27 0.019989699823540
28 0.004867966101512
29 0.004067417870720
30 -0.008268581830256
31 0.076761855915034
32 -0.051153538535778
33 0.006821923281031
34 -0.17493398903561
35 0.013416874521928
36 0.076761855915034
37 -0.051153538535778
38 0.006821923281031
39 0.17493398903561
40 -0.013416874521928
 Sym=      9.2
 Ene=       1.2169
 Spin= Alpha
 Occup=    0.000000
1 -0.005266788494423
2 0.045250088876674
3 0.42453635762028
4 -0.48157333728896
5 0.21807689686407
6 0.30189554820490
7 0.75116422858888
8 -0.77301065021538
9 -0.22448235545601
10 -0.006738105508525
11 0.020069849631605
12 -0.013331744123080
13 0.016463171503068
14 -0.020086721727272
15 0.013893334061742
16 0.005266788494423
17 -0.045250088876674
18 -0.42453635762028
19 0.48157333728896
20 0.21807689686407
21 0.30189554820490
22 -0.75116422858888
23 -0.77301065021538
24 -0.22448235545601
25 0.006738105508525
26 -0.020069849631605
27 0.013331744123080
28 0.016463171503068
29 -0.020086721727272
30 -0.013893334061742
31 -0.22297395569787
32 0.31200914886347
33 -0.026141083584938
34 0.22799380824876
35 -0.052683631775441
36 0.22297395569787
37 -0.31200914886347
38 0.026141083584938
39 0.22799380824876
40 -0.052683631775441
 Sym=     10.2
 Ene=       1.2806
 Spin= Alpha
 Occup=    0.000000
1 -0.024105086868333
2 -0.052389436744769
3 0.076588059688912
4 -0.31226096452070
5 -0.40055627795283
6 -0.24802516007269
7 0.78860016127277
8 1.05325445870920
9 0.65028014186023
10 0.013631786465442
11 -0.033078025165701
12 0.019446238700259
13 0.018675119818559
14 -0.004806358938246
15 -0.017200107335347
16 0.024105086868333
17 0.052389436744769
18 -0.076588059688912
19 0.31226096452070
20 -0.40055627795283
21 -0.24802516007269
22 -0.78860016127277
23 1.05325445870920
24 0.65028014186023
25 -0.013631786465442
26 0.033078025165701
27 -0.019446238700259
28 0.018675119818559
29 -0.004806358938246
30 0.017200107335347
31 -0.43685600821020
32 -0.58591729194269
33 0.14468150738225
34 -0.007825039491864
35 0.23111997580888
36 0.43685600821020
37 0.58591729194269
38 -0.14468150738225
39 -0.007825039491864
40 0.23111997580888
 Sym=     10.1
 Ene=       1.3310
 Spin= Alpha
 Occup=    0.000000
1 -0.10409997311506
2 -0.28680181799431
3 0.38027267185843
4 -0.039296292595907
5 -0.51890077697243
6 0.32813970338270
7 -0.044166019256838
8 0.53911779985092
9 -0.67391350152233
10 -0.041787272104933
11 0.064992668160267
12 -0.023205396055334
13 0.019983535837154
14 0.031017967087165
15 -0.012573160936197
16 -0.10409997311506
17 -0.28680181799431
18 0.38027267185843
19 -0.039296292595907
20 0.51890077697243
21 -0.32813970338270
22 -0.044166019256838
23 -0.53911779985092
24 0.67391350152233
25 -0.041787272104933
26 0.064992668160267
27 -0.023205396055334
28 -0.019983535837154
29 -0.031017967087165
30 -0.012573160936197
31 0.36627700476598
32 -0.22241145436740
33 0.047506177607557
34 0.033315189974555
35 -0.025441062235181
36 0.36627700476598
37 -0.22241145436740
38 0.047506177607557
39 -0.033315189974555
40 0.025441062235181
 Sym=     11.2
 Ene=       1.4728
 Spin= Alpha
 Occup=    0.000000
1 0.010236650797905
2 -0.000410629508121
3 -0.21804752344535
4 -0.13269816585899
5 0.12113763703149
6 0.077950834930173
7 -0.097990433591061
8 0.19479138936101
9 -0.10220910081918
10 0.040863192504312
11 0.001283224811332
12 -0.042146417315644
13 -0.004008924568027
14 0.054661448749685
15 -0.096069301168872
16 -0.010236650797905
17 0.000410629508121
18 0.21804752344535
19 0.13269816585899
20 0.12113763703149
21 0.077950834930173