[Molden Format]
[Molpro variables]
_NUMVAR=  814.0000000000000    
_AVOGAD= 0.6022136736000000E+24
_BOLTZ= 0.1380658000000000E-22
_CLIGHT=  29979245800.00000    
_EV2006= 0.3674930886769165E-01
_EV= 0.3674932534394180E-01
_ENULL= 0.8854187817000000E-11
_KJOULE= 0.3808798324128737E-03
_KJOULE/MOL= 0.3808798324128737E-03
_CM= 0.4556335267302901E-05
_CM-1= 0.4556335267302901E-05
_DEB2SI= 0.3335641000000000E-29
_AMU2AU=  1822.888390000000    
_KCAL= 0.1593601117815568E-02
_KCAL/MOL= 0.1593601117815568E-02
_KELVIN2006= 0.3166828861084835E-05
_KELVIN= 0.3166814820820034E-05
_JOULE= 0.4359748200000000E-17
_HERTZ2006= 0.1519829850815779E-15
_HERTZ= 0.1519829846011223E-15
_HZ2006= 0.1519829850815779E-15
_HZ= 0.1519829846011223E-15
_JPCAL=  4.184000000000000    
_PLANCK= 0.6626075540000000E-33
_TOA2006= 0.5291772490000000    
_TOA= 0.5291772090000000    
_TOANG2006= 0.5291772490000000    
_TOANG= 0.5291772090000000    
_TORAD= 0.1745329251994330E-01
_TOCM=  219474.6306700000    
_TODEBYE=  2.541580000000000    
_TOEV2006=  27.21139610000000    
_TOE= 0.4803242000000000E-09
_TOEV=  27.21138390000000    
_TOHERTZ2006=  6579683899900000.    
_TOHERTZ=  6579683920700000.    
_TOHZ2006=  6579683899900000.    
_TOHZ=  6579683920700000.    
_TOK2006=  315773.3000000000    
_TOK=  315774.7000000000    
_TOKCAL=  627.5096000000000    
_TOKELVIN2006=  315773.3000000000    
_TOKELVIN=  315774.7000000000    
_TOKJ=  2625.500000000000    
_TOKJOULE=  2625.500000000000    
_TOKG= 0.1660565586000000E-26
_ANG2006=  1.889725988578923    
_ANG=  1.889726131421507    
_ANGSTROM2006=  1.889725988578923    
_ANGSTROM=  1.889726131421507    
_RPAREF=  0.000000000000000    
_RPADISS=  0.000000000000000    
_IGNORE_UNDEF=  2.000000000000000    
_STRICTCHECK=  0.000000000000000    
_SEW_ONEEL=  0.000000000000000    
_CPPDONE=FALSE
_DKROLL_DONE=  0.000000000000000    
_FOCKDONE=TRUE
_GRADONE=FALSE
_HESSDONE=FALSE
_INTDONE=TRUE
_SCFDONE=TRUE
_MODUL_BLOCK=FALSE
_MODUL_CUDA=FALSE
_MODUL_SLATER=FALSE
_MODUL_MRCC=FALSE
_MODUL_NBO6=FALSE
_MODUL_NECI=TRUE
_MODUL_AIMS=TRUE
_MRCC_EXEC=
_FITC_AO_SAVED=FALSE
_FITC_MO_SAVED=FALSE
_SHARED_FS=TRUE
_LSTYP=SEWARD
_INTYP=INTS
_GEOMTYP=ZMAT
_GRADTYP=ALASKA
_DIRECT=FALSE
_DKHO= -1.000000000000000    
_SYNCM=  0.000000000000000    
_BASIS=USERDEF
_ZORIENT=  1.000000000000000    
_NELEC=  46.00000000000000    
!SPIN=  0.000000000000000    
_QSDSTEP=  0.000000000000000    
_QSDIRC=  0.000000000000000    
_PROGRAM=HF-SCF
_CPUSTEP=  5.180000000000000    
_SYSSTEP= 0.3200000000000000    
_WALLSTEP=  3.320000000000000    
!DFSCF=  0.000000000000000    
!SCSGRD=  0.000000000000000    
_BASINP=  610.0000000000000    
_CPUTOT=  8.029999999999999    
_CPUSORT= 0.4499999999999997    
_SYSSORT= 0.2800000000000000    
_WALLSORT= 0.7800000011920929    
_DFTEXFAC=  1.000000000000000    
_DMX=  0.000000000000000    
_DMY=  0.000000000000000    
_DMZ=  0.000000000000000    
_DMX_SCF=  0.000000000000000    
_DMY_SCF=  0.000000000000000    
_DMZ_SCF=  0.000000000000000    
_EHOMO=-0.2436372778351047    
_ELUMO=-0.1118322523632330    
_ENERGY= -264.3501713490016    
_ENUC=  209.7190764685884    
_EPS1= -15.69243497703180    
_EPS2= -15.69244444847154    
_GRADEXFAC=  9999.000000000000    
_GRADMETHOD=  1.000000000000000    
_NMRMETHOD=  0.000000000000000    
!GRID_FREEZE= -1.000000000000000    
_ITERATIONS=  24.00000000000000    
_LASTNELEC=  46.00000000000000    
_LASTSPIN=  0.000000000000000    
_LASTSYM=  1.000000000000000    
_MPP_PROG=  0.000000000000000    
_NPROC_MPP=  1.000000000000000    
_NPROC_MPPX=  1.000000000000000    
_NPROC_SMP=  16.00000000000000    
_NUMSTEP=  0.000000000000000    
_ORBITAL=  2100.200000000000    
_PI=  3.141592653589793    
_SEIG_MIN= 0.3661020316633453E-02
_SEWPROP=TRUE
_STATUS=  1.000000000000000    
_SYSTOT= 0.7100000000000000    
_VERSION=  2012001.000000000    
_WALLTOT=  7.960000000000000    
_DATE=24-Jan-19
_LASTORB=RHF
_MACHINE=Linux-4.9.0-8-amd64/nympha18.meta.zcu.cz(x86_64) (16 PROC) 64 bit serial version
_OUTPUT=/auto/brno2/home/masiz4am/git/UKRmol-in/tests/suite/Ci_scattering_SEP/molpro.xml
_PGROUP=Ci
_TIME=16:40:50
_LIBMOL=/afs/ics.muni.cz/software/molpro-2012.1/molprop_2012_1_Linux_x86_64_i8/lib/
!VIBCNT=  0.000000000000000    
!RGHFCNT=  0.000000000000000    
!SURFREC=  0.000000000000000    
!POLYREC=  0.000000000000000    
!DIPREC=  0.000000000000000    
!VSCFREC=  0.000000000000000    
!VCIREC=  0.000000000000000    
!PVCIREC=  0.000000000000000    
!VMP2REC=  0.000000000000000    
!VMCSCFREC=  0.000000000000000    
!VMRCIREC=  0.000000000000000    
!VIBINFO=  0.000000000000000    
!GAREC=  0.000000000000000    
!SCFORB=  21002.00000000000    
!NEWMOL= -1.000000000000000    
!NEWSYM= -1.000000000000000    
_SLFILES=slscratch
_NGSSTO=  9.000000000000000    
_SIN=SIN
_COS=COS
_TAN=TAN
_ACOS=ACOS
_ASIN=ASIN
_ATAN=ATAN
_COSH=COSH
_SINH=SINH
_TANH=TANH
_ABS=ABS
_MOD=MOD
_ERF=ERF
_REFC=REFC
_ERFC=ERFC
_HYPOT=HYPOT
_J0=J0
_J1=J1
_JN=JN
_GAMMA=GAMMA
_LGAMMA=LGAMMA
_Y0=Y0
_Y1=Y1
_YN=YN
_EXP=EXP
_LOG=LOG
_LOG10=LOG10
_SQRT=SQRT
_INT=INT
_NINT=NINT
_MAX=MAX
_MIN=MIN
_COSMO=  0.000000000000000    
_COSMOIT=  0.000000000000000    
_COSMOES=  0.000000000000000    
_COSMOEDS=  0.000000000000000    
_COSMOEC=  0.000000000000000    
_COSMOEDCORR=  0.000000000000000    
_FEPSI=  1.000000000000000    
_SL_IsMM=  0.000000000000000    
_SL_NSYM=  2.000000000000000    
_SL_System_BitSw=  0.000000000000000    
_SL_Unique_atoms=  0.000000000000000    
_SL_GRAD=  0.000000000000000    
_SL_MAXUPD_Hess=  5.000000000000000    
_SL_N_PRINT_COD=  5.000000000000000    
_SL_PRINT_CODES=  0.000000000000000    
_SL_BasType=  0.000000000000000    
_SL_Energy_Pred=  0.000000000000000    
_SL_New_Coords=  0.000000000000000    
_SL_Total_Nuclea=  0.000000000000000    
_SL_Highest_Mltp=  0.000000000000000    
_SL_Ref_Geom=  0.000000000000000    
_SL_Symmetry_ope=  1.000000000000000    
_SL_agrad=  0.000000000000000    
_SL_GrdMax=  0.000000000000000    
_SL_GrdNorm=  0.000000000000000    
_SL_GrdRMS=  0.000000000000000    
!LATTICE= -1.000000000000000    
!NEWLATTICE=  0.000000000000000    
!LATGRAD_VAR=FALSE
!SEW_LATTICE=  1.000000000000000    
!LOCAL=  0.000000000000000    
!SAVEDOM= -1.000000000000000    
!RESTDOM= -1.000000000000000    
!SAVEDOM_HF= -1.000000000000000    
!RESTDOM_HF= -1.000000000000000    
!HESSREC=  0.000000000000000    
!FREQREC=  0.000000000000000    
!NMODREC=  0.000000000000000    
!GTASKS=  0.000000000000000    
!HTASKS=  0.000000000000000    
!THRCHG= 0.1000000000000000    
!DEBUG= -1.000000000000000    
!CFIT_CPHF=  0.000000000000000    
!RDOMAUX_CPHF=  3.000000000000000    
!THRAO_CPHF= 0.1000000000000000E-09
!THRMO_CPHF= 0.1000000000000000E-08
!THROV_CPHF= 0.1000000000000000E-11
!THRSW_CPHF= 0.1000000000000000E-09
!THRPROD_CPHF= 0.1000000000000000E-08
!THRAOPR_CPHF= 0.1000000000000000E-11
!CFIT_SCFGRD=  0.000000000000000    
!RDOMAUX_SCFGRD=  5.000000000000000    
!THRAO_SCFGRD= 0.1000000000000000E-09
!THRMO_SCFGRD= 0.1000000000000000E-08
!THROV_SCFGRD= 0.1000000000000000E-11
!THRSW_SCFGRD= 0.1000000000000000E-09
!THRPROD_SCFGRD= 0.1000000000000000E-08
!THRAOPR_SCFGRD= 0.1000000000000000E-11
!LOCFIT_SCF=  0.000000000000000    
!LOCFIT_MP2= -1.000000000000000    
_RIDOM=  0.000000000000000    
!CC2_METHOD=  0.000000000000000    
_BASIS2006=FALSE
_SVDDEL= -1.000000000000000    
_SVDDELA= -1.000000000000000    
_SVDDELP= -1.000000000000000    
_SVDDELF= -1.000000000000000    
_SVDDELS= -1.000000000000000    
_SVDDEL_ABS= -1.000000000000000    
_SVDDELA_ABS= -1.000000000000000    
_SVDDELP_ABS= -1.000000000000000    
_SVDDELF_ABS= -1.000000000000000    
_SVDDELS_ABS= -1.000000000000000    
_MAXBASIS=  0.000000000000000    
!OPT_CONICAL=  0.000000000000000    
!CLEARSP_JGRID=  0.000000000000000    
_4EXT_NDISKS=  1.000000000000000    
!ZMP=  0.000000000000000    
_MAXIT_ZMP=  500.0000000000000    
_MAXDIS_ZMP=  100.0000000000000    
_ACCU_ZMP=  14.00000000000000    
_SHIFTA_ZMP= -100.0000000000000    
!EMBEDFLAG=  1.000000000000000    
!EMBED=FALSE
!EMBED_F12=FALSE
!EMBEDNUC=  0.000000000000000    
_EMBEDENERGY=  0.000000000000000    
_KSPACETIME=  0.000000000000000    
_RSPACETIME=  0.000000000000000    
!EMBED_DFC=FALSE
!NUM_VOIDS=  0.000000000000000    
_IBODY=  0.000000000000000    
_EMBE_TOTAL=  0.000000000000000    
_EMBE_HF=  0.000000000000000    
_EMBE_CORR=  0.000000000000000    
!EDFT=  0.000000000000000    
_IFASTLATGRAD=  0.000000000000000    
_SINDEX=  0.000000000000000    
GX1= -1.829065784000000    
GY1=  2.251986461000000    
GZ1= -2.936634186000000    
GX2= -3.551551023000000    
GY2=-0.8326132710000000    
GZ2= 0.7694964230000000    
GX3= -1.239849221000000    
GY3= 0.7377490260000000    
GZ3= 0.1065805460000000    
GX4= -5.233407153000000    
GY4= 0.3520559520000000    
GZ4= 0.7284893690000001    
GX5= -3.802695607000000    
GY5= -2.368771527000000    
GZ5=-0.5822245770000000    
GX6= -3.351618013000000    
GY6= -1.631211473000000    
GZ6=  2.654309124000000    
GX7= -1.002688610000000    
GY7=  2.291859679000000    
GZ7=  1.429388738000000    
GX8=  1.829065784000000    
GY8= -2.251986461000000    
GZ8=  2.936634186000000    
GX9=  3.551551023000000    
GY9= 0.8326132710000000    
GZ9=-0.7694964230000000    
GX10=  1.239849221000000    
GY10=-0.7377490260000000    
GZ10=-0.1065805460000000    
GX11=  5.233407153000000    
GY11=-0.3520559520000000    
GZ11=-0.7284893690000001    
GX12=  3.802695607000000    
GY12=  2.368771527000000    
GZ12= 0.5822245770000000    
GX13=  3.351618013000000    
GY13=  1.631211473000000    
GZ13= -2.654309124000000    
GX14=  1.002688610000000    
GY14= -2.291859679000000    
GZ14= -1.429388738000000    
[Atoms] Angs
N     1    7        -0.9678999267        1.1916999101       -1.5539998824
C     2    6        -1.8793998580       -0.4405999669        0.4071999695
C     3    6        -0.6560999503        0.3903999705        0.0563999959
H     4    1        -2.7693997908        0.1862999861        0.3854999711
H     5    1        -2.0122998480       -1.2534999054       -0.3080999767
H     6    1        -1.7735998658       -0.8631999346        1.4045998941
H     7    1        -0.5305999601        1.2127999084        0.7563999430
N     8    7         0.9678999267       -1.1916999101        1.5539998824
C     9    6         1.8793998580        0.4405999669       -0.4071999695
C    10    6         0.6560999503       -0.3903999705       -0.0563999959
H    11    1         2.7693997908       -0.1862999861       -0.3854999711
H    12    1         2.0122998480        1.2534999054        0.3080999767
H    13    1         1.7735998658        0.8631999346       -1.4045998941
H    14    1         0.5305999601       -1.2127999084       -0.7563999430
[GTO]
  1 0
 s    8  1.00
  0.9046000000D+04  0.6996174134D-03
  0.1357000000D+04  0.5386054630D-02
  0.3093000000D+03  0.2739102119D-01
  0.8773000000D+02  0.1031505920D+00
  0.2856000000D+02  0.2785706633D+00
  0.1021000000D+02  0.4482948495D+00
  0.3838000000D+01  0.2780859284D+00
  0.7466000000D+00  0.1543156123D-01
 s    8  1.00
  0.9046000000D+04 -0.3049900960D-03
  0.1357000000D+04 -0.2408026379D-02
  0.3093000000D+03 -0.1194444873D-01
  0.8773000000D+02 -0.4892599291D-01
  0.2856000000D+02 -0.1344727247D+00
  0.1021000000D+02 -0.3151125777D+00
  0.3838000000D+01 -0.2428578325D+00
  0.7466000000D+00  0.1094382207D+01
 s    1  1.00
  0.2248000000D+00  0.1000000000D+01
 p    3  1.00
  0.1355000000D+02  0.5890567677D-01
  0.2917000000D+01  0.3204611067D+00
  0.7973000000D+00  0.7530420618D+00
 p    1  1.00
  0.2185000000D+00  0.1000000000D+01
 d    1  1.00
  0.8170000000D+00  0.1000000000D+01
  
  8 0
 s    8  1.00
  0.9046000000D+04  0.6996174134D-03
  0.1357000000D+04  0.5386054630D-02
  0.3093000000D+03  0.2739102119D-01
  0.8773000000D+02  0.1031505920D+00
  0.2856000000D+02  0.2785706633D+00
  0.1021000000D+02  0.4482948495D+00
  0.3838000000D+01  0.2780859284D+00
  0.7466000000D+00  0.1543156123D-01
 s    8  1.00
  0.9046000000D+04 -0.3049900960D-03
  0.1357000000D+04 -0.2408026379D-02
  0.3093000000D+03 -0.1194444873D-01
  0.8773000000D+02 -0.4892599291D-01
  0.2856000000D+02 -0.1344727247D+00
  0.1021000000D+02 -0.3151125777D+00
  0.3838000000D+01 -0.2428578325D+00
  0.7466000000D+00  0.1094382207D+01
 s    1  1.00
  0.2248000000D+00  0.1000000000D+01
 p    3  1.00
  0.1355000000D+02  0.5890567677D-01
  0.2917000000D+01  0.3204611067D+00
  0.7973000000D+00  0.7530420618D+00
 p    1  1.00
  0.2185000000D+00  0.1000000000D+01
 d    1  1.00
  0.8170000000D+00  0.1000000000D+01
  
  2 0
 s    8  1.00
  0.6665000000D+04  0.6915839628D-03
  0.1000000000D+04  0.5325796153D-02
  0.2280000000D+03  0.2706072104D-01
  0.6471000000D+02  0.1016568461D+00
  0.2106000000D+02  0.2745748236D+00
  0.7495000000D+01  0.4482943189D+00
  0.2797000000D+01  0.2849026107D+00
  0.5215000000D+00  0.1519485921D-01
 s    8  1.00
  0.6665000000D+04 -0.2932696527D-03
  0.1000000000D+04 -0.2318035474D-02
  0.2280000000D+03 -0.1149978604D-01
  0.6471000000D+02 -0.4682672701D-01
  0.2106000000D+02 -0.1284661688D+00
  0.7495000000D+01 -0.3012662725D+00
  0.2797000000D+01 -0.2556307023D+00
  0.5215000000D+00  0.1093793361D+01
 s    1  1.00
  0.1596000000D+00  0.1000000000D+01
 p    3  1.00
  0.9439000000D+01  0.5697925159D-01
  0.2002000000D+01  0.3132072115D+00
  0.5456000000D+00  0.7603767417D+00
 p    1  1.00
  0.1517000000D+00  0.1000000000D+01
 d    1  1.00
  0.5500000000D+00  0.1000000000D+01
  
  9 0
 s    8  1.00
  0.6665000000D+04  0.6915839628D-03
  0.1000000000D+04  0.5325796153D-02
  0.2280000000D+03  0.2706072104D-01
  0.6471000000D+02  0.1016568461D+00
  0.2106000000D+02  0.2745748236D+00
  0.7495000000D+01  0.4482943189D+00
  0.2797000000D+01  0.2849026107D+00
  0.5215000000D+00  0.1519485921D-01
 s    8  1.00
  0.6665000000D+04 -0.2932696527D-03
  0.1000000000D+04 -0.2318035474D-02
  0.2280000000D+03 -0.1149978604D-01
  0.6471000000D+02 -0.4682672701D-01
  0.2106000000D+02 -0.1284661688D+00
  0.7495000000D+01 -0.3012662725D+00
  0.2797000000D+01 -0.2556307023D+00
  0.5215000000D+00  0.1093793361D+01
 s    1  1.00
  0.1596000000D+00  0.1000000000D+01
 p    3  1.00
  0.9439000000D+01  0.5697925159D-01
  0.2002000000D+01  0.3132072115D+00
  0.5456000000D+00  0.7603767417D+00
 p    1  1.00
  0.1517000000D+00  0.1000000000D+01
 d    1  1.00
  0.5500000000D+00  0.1000000000D+01
  
  3 0
 s    8  1.00
  0.6665000000D+04  0.6915839628D-03
  0.1000000000D+04  0.5325796153D-02
  0.2280000000D+03  0.2706072104D-01
  0.6471000000D+02  0.1016568461D+00
  0.2106000000D+02  0.2745748236D+00
  0.7495000000D+01  0.4482943189D+00
  0.2797000000D+01  0.2849026107D+00
  0.5215000000D+00  0.1519485921D-01
 s    8  1.00
  0.6665000000D+04 -0.2932696527D-03
  0.1000000000D+04 -0.2318035474D-02
  0.2280000000D+03 -0.1149978604D-01
  0.6471000000D+02 -0.4682672701D-01
  0.2106000000D+02 -0.1284661688D+00
  0.7495000000D+01 -0.3012662725D+00
  0.2797000000D+01 -0.2556307023D+00
  0.5215000000D+00  0.1093793361D+01
 s    1  1.00
  0.1596000000D+00  0.1000000000D+01
 p    3  1.00
  0.9439000000D+01  0.5697925159D-01
  0.2002000000D+01  0.3132072115D+00
  0.5456000000D+00  0.7603767417D+00
 p    1  1.00
  0.1517000000D+00  0.1000000000D+01
 d    1  1.00
  0.5500000000D+00  0.1000000000D+01
  
 10 0
 s    8  1.00
  0.6665000000D+04  0.6915839628D-03
  0.1000000000D+04  0.5325796153D-02
  0.2280000000D+03  0.2706072104D-01
  0.6471000000D+02  0.1016568461D+00
  0.2106000000D+02  0.2745748236D+00
  0.7495000000D+01  0.4482943189D+00
  0.2797000000D+01  0.2849026107D+00
  0.5215000000D+00  0.1519485921D-01
 s    8  1.00
  0.6665000000D+04 -0.2932696527D-03
  0.1000000000D+04 -0.2318035474D-02
  0.2280000000D+03 -0.1149978604D-01
  0.6471000000D+02 -0.4682672701D-01
  0.2106000000D+02 -0.1284661688D+00
  0.7495000000D+01 -0.3012662725D+00
  0.2797000000D+01 -0.2556307023D+00
  0.5215000000D+00  0.1093793361D+01
 s    1  1.00
  0.1596000000D+00  0.1000000000D+01
 p    3  1.00
  0.9439000000D+01  0.5697925159D-01
  0.2002000000D+01  0.3132072115D+00
  0.5456000000D+00  0.7603767417D+00
 p    1  1.00
  0.1517000000D+00  0.1000000000D+01
 d    1  1.00
  0.5500000000D+00  0.1000000000D+01
  
  4 0
 s    3  1.00
  0.1301000000D+02  0.3349872639D-01
  0.1962000000D+01  0.2348008012D+00
  0.4446000000D+00  0.8136829579D+00
 s    1  1.00
  0.1220000000D+00  0.1000000000D+01
 p    1  1.00
  0.7270000000D+00  0.1000000000D+01
  
 11 0
 s    3  1.00
  0.1301000000D+02  0.3349872639D-01
  0.1962000000D+01  0.2348008012D+00
  0.4446000000D+00  0.8136829579D+00
 s    1  1.00
  0.1220000000D+00  0.1000000000D+01
 p    1  1.00
  0.7270000000D+00  0.1000000000D+01
  
  5 0
 s    3  1.00
  0.1301000000D+02  0.3349872639D-01
  0.1962000000D+01  0.2348008012D+00
  0.4446000000D+00  0.8136829579D+00
 s    1  1.00
  0.1220000000D+00  0.1000000000D+01
 p    1  1.00
  0.7270000000D+00  0.1000000000D+01
  
 12 0
 s    3  1.00
  0.1301000000D+02  0.3349872639D-01
  0.1962000000D+01  0.2348008012D+00
  0.4446000000D+00  0.8136829579D+00
 s    1  1.00
  0.1220000000D+00  0.1000000000D+01
 p    1  1.00
  0.7270000000D+00  0.1000000000D+01
  
  6 0
 s    3  1.00
  0.1301000000D+02  0.3349872639D-01
  0.1962000000D+01  0.2348008012D+00
  0.4446000000D+00  0.8136829579D+00
 s    1  1.00
  0.1220000000D+00  0.1000000000D+01
 p    1  1.00
  0.7270000000D+00  0.1000000000D+01
  
 13 0
 s    3  1.00
  0.1301000000D+02  0.3349872639D-01
  0.1962000000D+01  0.2348008012D+00
  0.4446000000D+00  0.8136829579D+00
 s    1  1.00
  0.1220000000D+00  0.1000000000D+01
 p    1  1.00
  0.7270000000D+00  0.1000000000D+01
  
  7 0
 s    3  1.00
  0.1301000000D+02  0.3349872639D-01
  0.1962000000D+01  0.2348008012D+00
  0.4446000000D+00  0.8136829579D+00
 s    1  1.00
  0.1220000000D+00  0.1000000000D+01
 p    1  1.00
  0.7270000000D+00  0.1000000000D+01
  
 14 0
 s    3  1.00
  0.1301000000D+02  0.3349872639D-01
  0.1962000000D+01  0.2348008012D+00
  0.4446000000D+00  0.8136829579D+00
 s    1  1.00
  0.1220000000D+00  0.1000000000D+01
 p    1  1.00
  0.7270000000D+00  0.1000000000D+01
 
 
[MO]
 Sym=      1.2
 Ene=     -15.6924
 Spin= Alpha
 Occup=    2.000000
1 0.70767740779160
2 0.000126412335875
3 -0.003496869778587
4 0.000155225955792
5 -0.000335989982490
6 0.000579127606919
7 -0.000322240659554
8 0.000610684136462
9 -0.001113629079109
10 0.000029723504108
11 -0.000050530623293
12 0.000020807119186
13 0.000144409855531
14 -0.000331282036667
15 0.000097338277134
16 -0.70767740779160
17 -0.000126412335875
18 0.003496869778587
19 0.000155225955792
20 -0.000335989982490
21 0.000579127606919
22 -0.000322240659554
23 0.000610684136462
24 -0.001113629079109
25 -0.000029723504108
26 0.000050530623293
27 -0.000020807119186
28 -0.000144409855531
29 0.000331282036667
30 -0.000097338277134
31 -0.000093756939079
32 -0.000168826816106
33 0.000624776967980
34 -0.000006795304793
35 -0.000020458415009
36 0.000054560109065
37 0.000272114090410
38 0.000103039262591
39 -0.000014027894318
40 0.000076953694257
41 -0.000027447868465
42 -0.000049505825792
43 -0.000025348172929
44 0.000052082596974
45 0.000017106937404
46 0.000093756939079
47 0.000168826816106
48 -0.000624776967980
49 -0.000006795304793
50 -0.000020458415009
51 0.000054560109065
52 0.000272114090410
53 0.000103039262591
54 -0.000014027894318
55 -0.000076953694257
56 0.000027447868465
57 0.000049505825792
58 0.000025348172929
59 -0.000052082596974
60 -0.000017106937404
61 -0.000099567394165
62 -0.000147846803836
63 0.000828104612922
64 0.000013561836320
65 0.000005392442023
66 -0.000028291938180
67 -0.000071897701917
68 0.000746865060167
69 -0.001125754149931
70 -0.000090405991220
71 0.000008633071016
72 0.000081772920204
73 -0.000025618110153
74 0.000075665289233
75 -0.000100372747772
76 0.000099567394165
77 0.000147846803836
78 -0.000828104612922
79 0.000013561836320
80 0.000005392442023
81 -0.000028291938180
82 -0.000071897701917
83 0.000746865060167
84 -0.001125754149931
85 0.000090405991220
86 -0.000008633071016
87 -0.000081772920204
88 0.000025618110153
89 -0.000075665289233
90 0.000100372747772
91 -0.000141208379188
92 0.000036683268213
93 -0.000054507684417
94 -0.000012483131544
95 0.000034917189241
96 0.000141208379188
97 -0.000036683268213
98 -0.000054507684417
99 -0.000012483131544
100 0.000034917189241
101 -0.000095910598075
102 0.000066583744119
103 -0.000010201032405
104 -0.000027517346422
105 0.000040005281284
106 0.000095910598075
107 -0.000066583744119
108 -0.000010201032405
109 -0.000027517346422
110 0.000040005281284
111 0.000069127898985
112 -0.000118871160528
113 -0.000006178119229
114 0.000019754681781
115 0.000001513612380
116 -0.000069127898985
117 0.000118871160528
118 -0.000006178119229
119 0.000019754681781
120 0.000001513612380
121 -0.000085400026485
122 0.000059787035371
123 0.000032139103538
124 -0.000104698901084
125 0.000096934304336
126 0.000085400026485
127 -0.000059787035371
128 0.000032139103538
129 -0.000104698901084
130 0.000096934304336
 Sym=      1.1
 Ene=     -15.6924
 Spin= Alpha
 Occup=    2.000000
1 0.70758018709991
2 -0.000058707371328
3 -0.003039440054099
4 0.000115320249236
5 -0.000296625376581
6 0.000550955249077
7 -0.000168844992502
8 0.000436980151777
9 -0.000895959719232
10 0.000027381732565
11 -0.000061853419028
12 0.000034471686463
13 0.000110285605515
14 -0.000309948608699
15 0.000073768350581
16 0.70758018709991
17 -0.000058707371328
18 -0.003039440054099
19 -0.000115320249236
20 0.000296625376581
21 -0.000550955249077
22 0.000168844992502
23 -0.000436980151777
24 0.000895959719232
25 0.000027381732565
26 -0.000061853419028
27 0.000034471686463
28 0.000110285605515
29 -0.000309948608699
30 0.000073768350581
31 -0.000027614227911
32 -0.000066463208086
33 -0.000192194268759
34 -0.000036061955286
35 -0.000044118390413
36 0.000027744996918
37 0.000189620348406
38 0.000236406384827
39 -0.000199741706628
40 -0.000003376700896
41 0.000003271437994
42 0.000000105262902
43 0.000052635768291
44 0.000012675465210
45 -0.000005224608184
46 -0.000027614227911
47 -0.000066463208086
48 -0.000192194268759
49 0.000036061955286
50 0.000044118390413
51 -0.000027744996918
52 -0.000189620348406
53 -0.000236406384827
54 0.000199741706628
55 -0.000003376700896
56 0.000003271437994
57 0.000000105262902
58 0.000052635768291
59 0.000012675465210
60 -0.000005224608184
61 -0.000163277474821
62 -0.000291797705074
63 0.000852257979800
64 -0.000029406894492
65 0.000100219944463
66 -0.000088732051609
67 0.000015209030219
68 0.000415491515583
69 -0.001007242201617
70 -0.000070344726036
71 -0.000026221115200
72 0.000096565841235
73 -0.000031407277667
74 -0.000012885390811
75 -0.000066160213833
76 -0.000163277474821
77 -0.000291797705074
78 0.000852257979800
79 0.000029406894492
80 -0.000100219944463
81 0.000088732051609
82 -0.000015209030219
83 -0.000415491515583
84 0.001007242201617
85 -0.000070344726036
86 -0.000026221115200
87 0.000096565841235
88 -0.000031407277667
89 -0.000012885390811
90 -0.000066160213833
91 -0.000006182329073
92 0.000062003056180
93 -0.000004664116824
94 -0.000057885116563
95 0.000030359324722
96 -0.000006182329073
97 0.000062003056180
98 0.000004664116824
99 0.000057885116563
100 -0.000030359324722
101 -0.000013417564846
102 -0.000013161926939
103 -0.000045503564726
104 -0.000035111386659
105 0.000038785324925
106 -0.000013417564846
107 -0.000013161926939
108 0.000045503564726
109 0.000035111386659
110 -0.000038785324925
111 0.000005573210354
112 0.000504624820240
113 0.000021817633747
114 0.000026755705162
115 -0.000063995144795
116 0.000005573210354
117 0.000504624820240
118 -0.000021817633747
119 -0.000026755705162
120 0.000063995144795
121 -0.000125290179875
122 0.000121876823572
123 -0.000025552834350
124 -0.000032968330240
125 0.000029870033752
126 -0.000125290179875
127 0.000121876823572
128 0.000025552834350
129 0.000032968330240
130 -0.000029870033752
 Sym=      2.1
 Ene=     -11.3233
 Spin= Alpha
 Occup=    2.000000
1 -0.000203055988343
2 -0.000306174884941
3 0.001474320731012
4 0.000002736114658
5 -0.000019977662852
6 0.000092860624262
7 0.000131875976965
8 -0.000511863320124
9 0.000666480842726
10 -0.000007915101349
11 0.000020121573910
12 -0.000012206472561
13 -0.000036858326233
14 -0.000003096741744
15 -0.000042907618226
16 -0.000203055988343
17 -0.000306174884941
18 0.001474320731012
19 -0.000002736114658
20 0.000019977662852
21 -0.000092860624262
22 -0.000131875976965
23 0.000511863320124
24 -0.000666480842726
25 -0.000007915101349
26 0.000020121573910
27 -0.000012206472561
28 -0.000036858326233
29 -0.000003096741744
30 -0.000042907618226
31 0.002322914833737
32 -0.000262281187595
33 0.002370872323994
34 0.000014875467907
35 0.000059189958670
36 0.000019598310300
37 0.000950386563072
38 0.000351308281884
39 -0.000644766578250
40 0.000013876837735
41 -0.000045625788501
42 0.000031748950766
43 -0.000157053280697
44 0.000015971719920
45 -0.000044267525974
46 0.002322914833737
47 -0.000262281187595
48 0.002370872323994
49 -0.000014875467907
50 -0.000059189958670
51 -0.000019598310300
52 -0.000950386563072
53 -0.000351308281884
54 0.000644766578250
55 0.000013876837735
56 -0.000045625788501
57 0.000031748950766
58 -0.000157053280697
59 0.000015971719920
60 -0.000044267525974
61 0.70868279731153
62 0.002978668218320
63 -0.006469967222132
64 0.000155740822183
65 0.000012082045883
66 0.000001235247791
67 0.001119659226185
68 0.000544609194333
69 0.000885394124802
70 -0.000037841071684
71 0.000059605018383
72 -0.000021763946700
73 0.000216876404318
74 -0.000141623974547
75 0.000404886495464
76 0.70868279731153
77 0.002978668218320
78 -0.006469967222132
79 -0.000155740822183
80 -0.000012082045883
81 -0.000001235247791
82 -0.001119659226185
83 -0.000544609194333
84 -0.000885394124802
85 -0.000037841071684
86 0.000059605018383
87 -0.000021763946700
88 0.000216876404318
89 -0.000141623974547
90 0.000404886495464
91 -0.000138713895222
92 0.000223622621833
93 0.000039742563254
94 0.000060329234504
95 0.000021846577079
96 -0.000138713895222
97 0.000223622621833
98 -0.000039742563254
99 -0.000060329234504
100 -0.000021846577079
101 -0.000135012144748
102 -0.000161243141611
103 0.000028358589499
104 0.000062119291019
105 0.000009204580908
106 -0.000135012144748
107 -0.000161243141611
108 -0.000028358589499
109 -0.000062119291019
110 -0.000009204580908
111 -0.000122070306641
112 0.000117352622770
113 -0.000014357052465
114 0.000036502974444
115 0.000015288239426
116 -0.000122070306641
117 0.000117352622770
118 0.000014357052465
119 -0.000036502974444
120 -0.000015288239426
121 -0.000138975255627
122 0.000837660546564
123 0.000097009526883
124 0.000177791164734
125 0.000144127329277
126 -0.000138975255627
127 0.000837660546564
128 -0.000097009526883
129 -0.000177791164734
130 -0.000144127329277
 Sym=      2.2
 Ene=     -11.3227
 Spin= Alpha
 Occup=    2.000000
1 -0.000121915835418
2 -0.000147308744597
3 0.001226723979955
4 0.000000392226200
5 -0.000064876702374
6 0.000145491819550
7 0.000116475509184
8 -0.000343707357434
9 0.000563410238978
10 -0.000044806848116
11 0.000018586554776
12 0.000026220293340
13 0.000020992929285
14 0.000014590010097
15 -0.000033199612835
16 0.000121915835418
17 0.000147308744597
18 -0.001226723979955
19 0.000000392226200
20 -0.000064876702374
21 0.000145491819550
22 0.000116475509184
23 -0.000343707357434
24 0.000563410238978
25 0.000044806848116
26 -0.000018586554776
27 -0.000026220293340
28 -0.000020992929285
29 -0.000014590010097
30 0.000033199612835
31 0.002627587836844
32 0.000039465658020
33 0.001709620803825
34 0.000150210421019
35 0.000038755959824
36 -0.000006895348730
37 0.000539476277314
38 0.000538672261162
39 -0.000330327579575
40 -0.000063929338620
41 -0.000046933708117
42 0.000110863046736
43 -0.000034353491034
44 0.000064645529369
45 0.000002813997935
46 -0.002627587836844
47 -0.000039465658020
48 -0.001709620803825
49 0.000150210421019
50 0.000038755959824
51 -0.000006895348730
52 0.000539476277314
53 0.000538672261162
54 -0.000330327579575
55 0.000063929338620
56 0.000046933708117
57 -0.000110863046736
58 0.000034353491034
59 -0.000064645529369
60 -0.000002813997935
61 0.70890166020891
62 0.003205286899714
63 -0.010511594794689
64 0.000016314384217
65 0.000081679161604
66 0.000129538216348
67 -0.001219869157842
68 0.001267938176210
69 0.000458444583286
70 0.000056652096565
71 0.000157260400060
72 -0.000213912496625
73 0.000051882735321
74 -0.000098060039909
75 0.000409740120682
76 -0.70890166020891
77 -0.003205286899714
78 0.010511594794689
79 0.000016314384217
80 0.000081679161604
81 0.000129538216348
82 -0.001219869157842
83 0.001267938176210
84 0.000458444583286
85 -0.000056652096565
86 -0.000157260400060
87 0.000213912496625
88 -0.000051882735321
89 0.000098060039909
90 -0.000409740120682
91 -0.000093403599055
92 -0.000217568630757
93 0.000014869334155
94 0.000005308091615
95 0.000018119564538
96 0.000093403599055
97 0.000217568630757
98 0.000014869334155
99 0.000005308091615
100 0.000018119564538
101 -0.000056080277649
102 0.000197649008410
103 0.000113949799924
104 0.000041147398802
105 -0.000004757334901
106 0.000056080277649
107 -0.000197649008410
108 0.000113949799924
109 0.000041147398802
110 -0.000004757334901
111 -0.000069610080811
112 0.000162337732404
113 0.000061735453446
114 0.000008280284853
115 -0.000004525465979
116 0.000069610080811
117 -0.000162337732404
118 0.000061735453446
119 0.000008280284853
120 -0.000004525465979
121 0.000141406876094
122 0.000747072710656
123 -0.000012165007222
124 0.000264750623546
125 0.000199767541036
126 -0.000141406876094
127 -0.000747072710656
128 -0.000012165007222
129 0.000264750623546
130 0.000199767541036
 Sym=      3.1
 Ene=     -11.2387
 Spin= Alpha
 Occup=    2.000000
1 -0.000030844156888
2 -0.000072940281355
3 0.000010711321795
4 0.000006907835937
5 0.000046581425452
6 -0.000047667129317
7 -0.000109439277011
8 -0.000124228073258
9 0.000044512149439
10 0.000005490122289
11 0.000012235077059
12 -0.000017725199348
13 0.000032246185156
14 -0.000033940296387
15 -0.000033286272563
16 -0.000030844156888
17 -0.000072940281355