[Molden Format]
[Molpro variables]
_NUMVAR=  814.0000000000000    
_AVOGAD= 0.6022136736000000E+24
_BOLTZ= 0.1380658000000000E-22
_CLIGHT=  29979245800.00000    
_EV2006= 0.3674930886769165E-01
_EV= 0.3674932534394180E-01
_ENULL= 0.8854187817000000E-11
_KJOULE= 0.3808798324128737E-03
_KJOULE/MOL= 0.3808798324128737E-03
_CM= 0.4556335267302901E-05
_CM-1= 0.4556335267302901E-05
_DEB2SI= 0.3335641000000000E-29
_AMU2AU=  1822.888390000000    
_KCAL= 0.1593601117815568E-02
_KCAL/MOL= 0.1593601117815568E-02
_KELVIN2006= 0.3166828861084835E-05
_KELVIN= 0.3166814820820034E-05
_JOULE= 0.4359748200000000E-17
_HERTZ2006= 0.1519829850815779E-15
_HERTZ= 0.1519829846011223E-15
_HZ2006= 0.1519829850815779E-15
_HZ= 0.1519829846011223E-15
_JPCAL=  4.184000000000000    
_PLANCK= 0.6626075540000000E-33
_TOA2006= 0.5291772490000000    
_TOA= 0.5291772090000000    
_TOANG2006= 0.5291772490000000    
_TOANG= 0.5291772090000000    
_TORAD= 0.1745329251994330E-01
_TOCM=  219474.6306700000    
_TODEBYE=  2.541580000000000    
_TOEV2006=  27.21139610000000    
_TOE= 0.4803242000000000E-09
_TOEV=  27.21138390000000    
_TOHERTZ2006=  6579683899900000.    
_TOHERTZ=  6579683920700000.    
_TOHZ2006=  6579683899900000.    
_TOHZ=  6579683920700000.    
_TOK2006=  315773.3000000000    
_TOK=  315774.7000000000    
_TOKCAL=  627.5096000000000    
_TOKELVIN2006=  315773.3000000000    
_TOKELVIN=  315774.7000000000    
_TOKJ=  2625.500000000000    
_TOKJOULE=  2625.500000000000    
_TOKG= 0.1660565586000000E-26
_ANG2006=  1.889725988578923    
_ANG=  1.889726131421507    
_ANGSTROM2006=  1.889725988578923    
_ANGSTROM=  1.889726131421507    
_RPAREF=  0.000000000000000    
_RPADISS=  0.000000000000000    
_IGNORE_UNDEF=  2.000000000000000    
_STRICTCHECK=  0.000000000000000    
_SEW_ONEEL=  0.000000000000000    
_CPPDONE=FALSE
_DKROLL_DONE=  0.000000000000000    
_FOCKDONE=TRUE
_GRADONE=FALSE
_HESSDONE=FALSE
_INTDONE=TRUE
_SCFDONE=TRUE
_MODUL_BLOCK=FALSE
_MODUL_CUDA=FALSE
_MODUL_SLATER=FALSE
_MODUL_MRCC=FALSE
_MODUL_NBO6=FALSE
_MODUL_NECI=TRUE
_MODUL_AIMS=TRUE
_MRCC_EXEC=
_FITC_AO_SAVED=FALSE
_FITC_MO_SAVED=FALSE
_SHARED_FS=TRUE
_LSTYP=SEWARD
_INTYP=INTS
_GEOMTYP=ZMAT
_GRADTYP=ALASKA
_DIRECT=FALSE
_DKHO= -1.000000000000000    
_SYNCM=  0.000000000000000    
_BASIS=USERDEF
_ZORIENT=  1.000000000000000    
_NELEC=  42.00000000000000    
!SPIN=  0.000000000000000    
_QSDSTEP=  0.000000000000000    
_QSDIRC=  0.000000000000000    
_PROGRAM=MATROP
_CPUSTEP= 0.1999999999999957E-01
_SYSSTEP=  0.000000000000000    
_WALLSTEP= 0.1900000000000000    
!DFSCF=  0.000000000000000    
!SCSGRD=  0.000000000000000    
_BASINP=  610.0000000000000    
_CPUTOT=  11.60000000000000    
_DFTEXFAC=  1.000000000000000    
_DMX=  0.000000000000000    
_DMY=  0.000000000000000    
_DMZ=  0.000000000000000    
_DMX_SCF=  0.000000000000000    
_DMY_SCF=  0.000000000000000    
_DMZ_SCF=  0.000000000000000    
_EHOMO=-0.3326993314567835    
_ELUMO= 0.1358173769096926    
_ENUC=  202.7384749397557    
_EPS1= -11.25513954921928    
_EPS2= -11.25499089747310    
_EPS3=-0.4728173539851365    
_EPS4=-0.2947338616579477    
_EPS5= -11.25417969195363    
_EPS6= -11.25306356148945    
_EPS7=-0.2911986124987576    
_EPS8= 0.6846775804980684E-01
_GRADEXFAC=  9999.000000000000    
_GRADMETHOD=TRUE
_NMRMETHOD=  0.000000000000000    
!GRID_FREEZE= -1.000000000000000    
_ITERATIONS=  0.000000000000000    
_LASTNELEC=  10.00000000000000    
_LASTSPIN=  2.000000000000000    
_LASTSYM=  1.000000000000000    
_MPP_PROG=  0.000000000000000    
_NPROC_MPP=  1.000000000000000    
_NPROC_MPPX=  1.000000000000000    
_NPROC_SMP=  16.00000000000000    
_NUMSTEP=  0.000000000000000    
_ORBITAL=  2141.200000000000    
_PI=  3.141592653589793    
_SEIG_MIN= 0.3750168419057679E-03
_SEWPROP=TRUE
_STATUS=  0.000000000000000    
_SYSTOT=  5.090000000000000    
_VERSION=  2012001.000000000    
_WALLTOT=  73.65000000000001    
_DATE=24-Jan-19
_LASTORB=MCSCF
_MACHINE=Linux-4.9.0-8-amd64/nympha18.meta.zcu.cz(x86_64) (16 PROC) 64 bit serial version
_OUTPUT=/auto/brno2/home/masiz4am/git/UKRmol-in/tests/suite/D2h_target_CAS2/molpro.xml
_PGROUP=D2h
_TIME=16:38:00
_LIBMOL=/afs/ics.muni.cz/software/molpro-2012.1/molprop_2012_1_Linux_x86_64_i8/lib/
!VIBCNT=  0.000000000000000    
!RGHFCNT=  0.000000000000000    
!SURFREC=  0.000000000000000    
!POLYREC=  0.000000000000000    
!DIPREC=  0.000000000000000    
!VSCFREC=  0.000000000000000    
!VCIREC=  0.000000000000000    
!PVCIREC=  0.000000000000000    
!VMP2REC=  0.000000000000000    
!VMCSCFREC=  0.000000000000000    
!VMRCIREC=  0.000000000000000    
!VIBINFO=  0.000000000000000    
!GAREC=  0.000000000000000    
!SCFORB=  21002.00000000000    
!MCORB=  21412.00000000000    
!NEWMOL= -1.000000000000000    
!NEWSYM= -1.000000000000000    
_SLFILES=slscratch
_NGSSTO=  9.000000000000000    
_SIN=SIN
_COS=COS
_TAN=TAN
_ACOS=ACOS
_ASIN=ASIN
_ATAN=ATAN
_COSH=COSH
_SINH=SINH
_TANH=TANH
_ABS=ABS
_MOD=MOD
_ERF=ERF
_REFC=REFC
_ERFC=ERFC
_HYPOT=HYPOT
_J0=J0
_J1=J1
_JN=JN
_GAMMA=GAMMA
_LGAMMA=LGAMMA
_Y0=Y0
_Y1=Y1
_YN=YN
_EXP=EXP
_LOG=LOG
_LOG10=LOG10
_SQRT=SQRT
_INT=INT
_NINT=NINT
_MAX=MAX
_MIN=MIN
_COSMO=  0.000000000000000    
_COSMOIT=  0.000000000000000    
_COSMOES=  0.000000000000000    
_COSMOEDS=  0.000000000000000    
_COSMOEC=  0.000000000000000    
_COSMOEDCORR=  0.000000000000000    
_FEPSI=  1.000000000000000    
_SL_IsMM=  0.000000000000000    
_SL_NSYM=  8.000000000000000    
_SL_System_BitSw=  0.000000000000000    
_SL_Unique_atoms=  0.000000000000000    
_SL_GRAD=  0.000000000000000    
_SL_MAXUPD_Hess=  5.000000000000000    
_SL_N_PRINT_COD=  5.000000000000000    
_SL_PRINT_CODES=  0.000000000000000    
_SL_BasType=  0.000000000000000    
_SL_Energy_Pred=  0.000000000000000    
_SL_New_Coords=  0.000000000000000    
_SL_Total_Nuclea=  0.000000000000000    
_SL_Highest_Mltp=  0.000000000000000    
_SL_Ref_Geom=  0.000000000000000    
_SL_Symmetry_ope=  1.000000000000000    
_SL_agrad=  0.000000000000000    
_SL_GrdMax=  0.000000000000000    
_SL_GrdNorm=  0.000000000000000    
_SL_GrdRMS=  0.000000000000000    
!LATTICE= -1.000000000000000    
!NEWLATTICE=  0.000000000000000    
!LATGRAD_VAR=FALSE
!SEW_LATTICE=  1.000000000000000    
!LOCAL=  0.000000000000000    
!SAVEDOM= -1.000000000000000    
!RESTDOM= -1.000000000000000    
!SAVEDOM_HF= -1.000000000000000    
!RESTDOM_HF= -1.000000000000000    
!HESSREC=  0.000000000000000    
!FREQREC=  0.000000000000000    
!NMODREC=  0.000000000000000    
!GTASKS=  0.000000000000000    
!HTASKS=  0.000000000000000    
!THRCHG= 0.1000000000000000    
!DEBUG= -1.000000000000000    
!CFIT_CPHF=  0.000000000000000    
!RDOMAUX_CPHF=  3.000000000000000    
!THRAO_CPHF= 0.1000000000000000E-09
!THRMO_CPHF= 0.1000000000000000E-08
!THROV_CPHF= 0.1000000000000000E-11
!THRSW_CPHF= 0.1000000000000000E-09
!THRPROD_CPHF= 0.1000000000000000E-08
!THRAOPR_CPHF= 0.1000000000000000E-11
!CFIT_SCFGRD=  0.000000000000000    
!RDOMAUX_SCFGRD=  5.000000000000000    
!THRAO_SCFGRD= 0.1000000000000000E-09
!THRMO_SCFGRD= 0.1000000000000000E-08
!THROV_SCFGRD= 0.1000000000000000E-11
!THRSW_SCFGRD= 0.1000000000000000E-09
!THRPROD_SCFGRD= 0.1000000000000000E-08
!THRAOPR_SCFGRD= 0.1000000000000000E-11
!LOCFIT_SCF=  0.000000000000000    
!LOCFIT_MP2= -1.000000000000000    
_RIDOM=  0.000000000000000    
!CC2_METHOD=  0.000000000000000    
_BASIS2006=FALSE
_SVDDEL= -1.000000000000000    
_SVDDELA= -1.000000000000000    
_SVDDELP= -1.000000000000000    
_SVDDELF= -1.000000000000000    
_SVDDELS= -1.000000000000000    
_SVDDEL_ABS= -1.000000000000000    
_SVDDELA_ABS= -1.000000000000000    
_SVDDELP_ABS= -1.000000000000000    
_SVDDELF_ABS= -1.000000000000000    
_SVDDELS_ABS= -1.000000000000000    
_MAXBASIS=  0.000000000000000    
!OPT_CONICAL=  0.000000000000000    
!CLEARSP_JGRID=  0.000000000000000    
_4EXT_NDISKS=  1.000000000000000    
!ZMP=  0.000000000000000    
_MAXIT_ZMP=  500.0000000000000    
_MAXDIS_ZMP=  100.0000000000000    
_ACCU_ZMP=  14.00000000000000    
_SHIFTA_ZMP= -100.0000000000000    
!EMBEDFLAG=  1.000000000000000    
!EMBED=FALSE
!EMBED_F12=FALSE
!EMBEDNUC=  0.000000000000000    
_EMBEDENERGY=  0.000000000000000    
_KSPACETIME=  0.000000000000000    
_RSPACETIME=  0.000000000000000    
!EMBED_DFC=FALSE
!NUM_VOIDS=  0.000000000000000    
_IBODY=  0.000000000000000    
_EMBE_TOTAL=  0.000000000000000    
_EMBE_HF=  0.000000000000000    
_EMBE_CORR=  0.000000000000000    
!EDFT=  0.000000000000000    
_IFASTLATGRAD=  0.000000000000000    
_SINDEX=  0.000000000000000    
M_NAME=CASSCF(10,8)
M_CLOSED=  5.000000000000000    
M_OCC=  7.000000000000000    
GX1=  2.645994329000000    
GY1=  0.000000000000000    
GZ1=  0.000000000000000    
GX2=  1.322997165000000    
GY2=  0.000000000000000    
GZ2= -2.291481734000000    
GX3=  4.700693397000000    
GY3=  0.000000000000000    
GZ3=  0.000000000000000    
GX4=  2.350252212000000    
GY4=  0.000000000000000    
GZ4= -4.070847725000000    
GX5= -1.322997165000000    
GY5=  0.000000000000000    
GZ5= -2.291481734000000    
GX6= -2.645994329000000    
GY6=  0.000000000000000    
GZ6=  0.000000000000000    
GX7= -2.350252212000000    
GY7=  0.000000000000000    
GZ7= -4.070847725000000    
GX8= -4.700693397000000    
GY8=  0.000000000000000    
GZ8=  0.000000000000000    
GX9= -1.322997165000000    
GY9=  0.000000000000000    
GZ9=  2.291481734000000    
GX10=  1.322997165000000    
GY10=  0.000000000000000    
GZ10=  2.291481734000000    
GX11= -2.350252212000000    
GY11=  0.000000000000000    
GZ11=  4.070847725000000    
GX12=  2.350252212000000    
GY12=  0.000000000000000    
GZ12=  4.070847725000000    
_TRDMX=  0.000000000000000    
_TRDMY=  0.000000000000000    
_TRDMZ=  0.000000000000000    
[Atoms] Angs
C     1    6         1.4001998941        0.0000000000        0.0000000000
C     2    6         0.7000999473        0.0000000000       -1.2125999085
H     3    1         2.4874998122        0.0000000000        0.0000000000
H     4    1         1.2436999060        0.0000000000       -2.1541998374
C     5    6        -0.7000999473        0.0000000000       -1.2125999085
C     6    6        -1.4001998941        0.0000000000        0.0000000000
H     7    1        -1.2436999060        0.0000000000       -2.1541998374
H     8    1        -2.4874998122        0.0000000000        0.0000000000
C     9    6        -0.7000999473        0.0000000000        1.2125999085
C    10    6         0.7000999473        0.0000000000        1.2125999085
H    11    1        -1.2436999060        0.0000000000        2.1541998374
H    12    1         1.2436999060        0.0000000000        2.1541998374
[GTO]
  1 0
 s    8  1.00
  0.6665000000D+04  0.6915839628D-03
  0.1000000000D+04  0.5325796153D-02
  0.2280000000D+03  0.2706072104D-01
  0.6471000000D+02  0.1016568461D+00
  0.2106000000D+02  0.2745748236D+00
  0.7495000000D+01  0.4482943189D+00
  0.2797000000D+01  0.2849026107D+00
  0.5215000000D+00  0.1519485921D-01
 s    8  1.00
  0.6665000000D+04 -0.2932696527D-03
  0.1000000000D+04 -0.2318035474D-02
  0.2280000000D+03 -0.1149978604D-01
  0.6471000000D+02 -0.4682672701D-01
  0.2106000000D+02 -0.1284661688D+00
  0.7495000000D+01 -0.3012662725D+00
  0.2797000000D+01 -0.2556307023D+00
  0.5215000000D+00  0.1093793361D+01
 s    1  1.00
  0.1596000000D+00  0.1000000000D+01
 p    3  1.00
  0.9439000000D+01  0.5697925159D-01
  0.2002000000D+01  0.3132072115D+00
  0.5456000000D+00  0.7603767417D+00
 p    1  1.00
  0.1517000000D+00  0.1000000000D+01
 d    1  1.00
  0.5500000000D+00  0.1000000000D+01
  
  6 0
 s    8  1.00
  0.6665000000D+04  0.6915839628D-03
  0.1000000000D+04  0.5325796153D-02
  0.2280000000D+03  0.2706072104D-01
  0.6471000000D+02  0.1016568461D+00
  0.2106000000D+02  0.2745748236D+00
  0.7495000000D+01  0.4482943189D+00
  0.2797000000D+01  0.2849026107D+00
  0.5215000000D+00  0.1519485921D-01
 s    8  1.00
  0.6665000000D+04 -0.2932696527D-03
  0.1000000000D+04 -0.2318035474D-02
  0.2280000000D+03 -0.1149978604D-01
  0.6471000000D+02 -0.4682672701D-01
  0.2106000000D+02 -0.1284661688D+00
  0.7495000000D+01 -0.3012662725D+00
  0.2797000000D+01 -0.2556307023D+00
  0.5215000000D+00  0.1093793361D+01
 s    1  1.00
  0.1596000000D+00  0.1000000000D+01
 p    3  1.00
  0.9439000000D+01  0.5697925159D-01
  0.2002000000D+01  0.3132072115D+00
  0.5456000000D+00  0.7603767417D+00
 p    1  1.00
  0.1517000000D+00  0.1000000000D+01
 d    1  1.00
  0.5500000000D+00  0.1000000000D+01
  
  2 0
 s    8  1.00
  0.6665000000D+04  0.6915839628D-03
  0.1000000000D+04  0.5325796153D-02
  0.2280000000D+03  0.2706072104D-01
  0.6471000000D+02  0.1016568461D+00
  0.2106000000D+02  0.2745748236D+00
  0.7495000000D+01  0.4482943189D+00
  0.2797000000D+01  0.2849026107D+00
  0.5215000000D+00  0.1519485921D-01
 s    8  1.00
  0.6665000000D+04 -0.2932696527D-03
  0.1000000000D+04 -0.2318035474D-02
  0.2280000000D+03 -0.1149978604D-01
  0.6471000000D+02 -0.4682672701D-01
  0.2106000000D+02 -0.1284661688D+00
  0.7495000000D+01 -0.3012662725D+00
  0.2797000000D+01 -0.2556307023D+00
  0.5215000000D+00  0.1093793361D+01
 s    1  1.00
  0.1596000000D+00  0.1000000000D+01
 p    3  1.00
  0.9439000000D+01  0.5697925159D-01
  0.2002000000D+01  0.3132072115D+00
  0.5456000000D+00  0.7603767417D+00
 p    1  1.00
  0.1517000000D+00  0.1000000000D+01
 d    1  1.00
  0.5500000000D+00  0.1000000000D+01
  
  5 0
 s    8  1.00
  0.6665000000D+04  0.6915839628D-03
  0.1000000000D+04  0.5325796153D-02
  0.2280000000D+03  0.2706072104D-01
  0.6471000000D+02  0.1016568461D+00
  0.2106000000D+02  0.2745748236D+00
  0.7495000000D+01  0.4482943189D+00
  0.2797000000D+01  0.2849026107D+00
  0.5215000000D+00  0.1519485921D-01
 s    8  1.00
  0.6665000000D+04 -0.2932696527D-03
  0.1000000000D+04 -0.2318035474D-02
  0.2280000000D+03 -0.1149978604D-01
  0.6471000000D+02 -0.4682672701D-01
  0.2106000000D+02 -0.1284661688D+00
  0.7495000000D+01 -0.3012662725D+00
  0.2797000000D+01 -0.2556307023D+00
  0.5215000000D+00  0.1093793361D+01
 s    1  1.00
  0.1596000000D+00  0.1000000000D+01
 p    3  1.00
  0.9439000000D+01  0.5697925159D-01
  0.2002000000D+01  0.3132072115D+00
  0.5456000000D+00  0.7603767417D+00
 p    1  1.00
  0.1517000000D+00  0.1000000000D+01
 d    1  1.00
  0.5500000000D+00  0.1000000000D+01
  
  9 0
 s    8  1.00
  0.6665000000D+04  0.6915839628D-03
  0.1000000000D+04  0.5325796153D-02
  0.2280000000D+03  0.2706072104D-01
  0.6471000000D+02  0.1016568461D+00
  0.2106000000D+02  0.2745748236D+00
  0.7495000000D+01  0.4482943189D+00
  0.2797000000D+01  0.2849026107D+00
  0.5215000000D+00  0.1519485921D-01
 s    8  1.00
  0.6665000000D+04 -0.2932696527D-03
  0.1000000000D+04 -0.2318035474D-02
  0.2280000000D+03 -0.1149978604D-01
  0.6471000000D+02 -0.4682672701D-01
  0.2106000000D+02 -0.1284661688D+00
  0.7495000000D+01 -0.3012662725D+00
  0.2797000000D+01 -0.2556307023D+00
  0.5215000000D+00  0.1093793361D+01
 s    1  1.00
  0.1596000000D+00  0.1000000000D+01
 p    3  1.00
  0.9439000000D+01  0.5697925159D-01
  0.2002000000D+01  0.3132072115D+00
  0.5456000000D+00  0.7603767417D+00
 p    1  1.00
  0.1517000000D+00  0.1000000000D+01
 d    1  1.00
  0.5500000000D+00  0.1000000000D+01
  
 10 0
 s    8  1.00
  0.6665000000D+04  0.6915839628D-03
  0.1000000000D+04  0.5325796153D-02
  0.2280000000D+03  0.2706072104D-01
  0.6471000000D+02  0.1016568461D+00
  0.2106000000D+02  0.2745748236D+00
  0.7495000000D+01  0.4482943189D+00
  0.2797000000D+01  0.2849026107D+00
  0.5215000000D+00  0.1519485921D-01
 s    8  1.00
  0.6665000000D+04 -0.2932696527D-03
  0.1000000000D+04 -0.2318035474D-02
  0.2280000000D+03 -0.1149978604D-01
  0.6471000000D+02 -0.4682672701D-01
  0.2106000000D+02 -0.1284661688D+00
  0.7495000000D+01 -0.3012662725D+00
  0.2797000000D+01 -0.2556307023D+00
  0.5215000000D+00  0.1093793361D+01
 s    1  1.00
  0.1596000000D+00  0.1000000000D+01
 p    3  1.00
  0.9439000000D+01  0.5697925159D-01
  0.2002000000D+01  0.3132072115D+00
  0.5456000000D+00  0.7603767417D+00
 p    1  1.00
  0.1517000000D+00  0.1000000000D+01
 d    1  1.00
  0.5500000000D+00  0.1000000000D+01
  
  3 0
 s    3  1.00
  0.1301000000D+02  0.3349872639D-01
  0.1962000000D+01  0.2348008012D+00
  0.4446000000D+00  0.8136829579D+00
 s    1  1.00
  0.1220000000D+00  0.1000000000D+01
 p    1  1.00
  0.7270000000D+00  0.1000000000D+01
  
  8 0
 s    3  1.00
  0.1301000000D+02  0.3349872639D-01
  0.1962000000D+01  0.2348008012D+00
  0.4446000000D+00  0.8136829579D+00
 s    1  1.00
  0.1220000000D+00  0.1000000000D+01
 p    1  1.00
  0.7270000000D+00  0.1000000000D+01
  
  4 0
 s    3  1.00
  0.1301000000D+02  0.3349872639D-01
  0.1962000000D+01  0.2348008012D+00
  0.4446000000D+00  0.8136829579D+00
 s    1  1.00
  0.1220000000D+00  0.1000000000D+01
 p    1  1.00
  0.7270000000D+00  0.1000000000D+01
  
  7 0
 s    3  1.00
  0.1301000000D+02  0.3349872639D-01
  0.1962000000D+01  0.2348008012D+00
  0.4446000000D+00  0.8136829579D+00
 s    1  1.00
  0.1220000000D+00  0.1000000000D+01
 p    1  1.00
  0.7270000000D+00  0.1000000000D+01
  
 11 0
 s    3  1.00
  0.1301000000D+02  0.3349872639D-01
  0.1962000000D+01  0.2348008012D+00
  0.4446000000D+00  0.8136829579D+00
 s    1  1.00
  0.1220000000D+00  0.1000000000D+01
 p    1  1.00
  0.7270000000D+00  0.1000000000D+01
  
 12 0
 s    3  1.00
  0.1301000000D+02  0.3349872639D-01
  0.1962000000D+01  0.2348008012D+00
  0.4446000000D+00  0.8136829579D+00
 s    1  1.00
  0.1220000000D+00  0.1000000000D+01
 p    1  1.00
  0.7270000000D+00  0.1000000000D+01
 
 
[MO]
 Sym=      1.1
 Ene=     -11.2551
 Spin= Alpha
 Occup=    2.000000
1 0.55447395539035
2 0.001688546535701
3 -0.003974757499469
4 0.000287161153102
5 0.0
6 0.0
7 0.000462971835825
8 0.0
9 0.0
10 0.000189985846579
11 -0.000163693941819
12 -0.000026291904761
13 0.0
14 0.0
15 0.0
16 0.55447395539035
17 0.001688546535701
18 -0.003974757499469
19 -0.000287161153102
20 0.0
21 0.0
22 -0.000462971835825
23 0.0
24 0.0
25 0.000189985846579
26 -0.000163693941819
27 -0.000026291904761
28 0.0
29 0.0
30 0.0
31 0.31146954074122
32 0.001126339697263
33 -0.000649737106496
34 -0.000139343250627
35 0.0
36 -0.000560389830550
37 -0.000141529474448
38 0.0
39 0.000331342799511
40 0.000024299725770
41 0.000012823000309
42 -0.000037122726079
43 0.0
44 -0.000097646688817
45 0.0
46 0.31146954074122
47 0.001126339697263
48 -0.000649737106496
49 0.000139343250627
50 0.0
51 -0.000560389830550
52 0.000141529474448
53 0.0
54 0.000331342799511
55 0.000024299725770
56 0.000012823000309
57 -0.000037122726079
58 0.0
59 0.000097646688817
60 0.0
61 0.31146954074122
62 0.001126339697263
63 -0.000649737106496
64 0.000139343250627
65 0.0
66 0.000560389830550
67 0.000141529474448
68 0.0
69 -0.000331342799511
70 0.000024299725770
71 0.000012823000309
72 -0.000037122726079
73 0.0
74 -0.000097646688817
75 0.0
76 0.31146954074122
77 0.001126339697263
78 -0.000649737106496
79 -0.000139343250627
80 0.0
81 0.000560389830550
82 -0.000141529474448
83 0.0
84 -0.000331342799511
85 0.000024299725770
86 0.000012823000309
87 -0.000037122726079
88 0.0
89 0.000097646688817
90 0.0
91 -0.000210007528426
92 0.000719607304571
93 0.000216325732961
94 0.0
95 0.0
96 -0.000210007528426
97 0.000719607304571
98 -0.000216325732961
99 0.0
100 0.0
101 0.000264307395019
102 0.000693443720824
103 0.000003868637785
104 0.0
105 -0.000034660292480
106 0.000264307395019
107 0.000693443720824
108 -0.000003868637785
109 0.0
110 -0.000034660292480
111 0.000264307395019
112 0.000693443720824
113 -0.000003868637785
114 0.0
115 0.000034660292480
116 0.000264307395019
117 0.000693443720824
118 0.000003868637785
119 0.0
120 0.000034660292480
 Sym=      1.2
 Ene=     -11.2550
 Spin= Alpha
 Occup=    2.000000
1 0.65794398267436
2 0.002921623002777
3 -0.006229015506241
4 -0.000111995531677
5 0.0
6 0.0
7 0.001106133902779
8 0.0
9 0.0
10 0.000171956097499
11 -0.000172461292222
12 0.000000505194723
13 0.0
14 0.0
15 0.0
16 -0.65794398267436
17 -0.002921623002777
18 0.006229015506241
19 -0.000111995531677
20 0.0
21 0.0
22 0.001106133902779
23 0.0
24 0.0
25 -0.000171956097499
26 0.000172461292222
27 -0.000000505194723
28 0.0
29 0.0
30 0.0
31 0.18591680930433
32 0.000722393362662
33 -0.000440764101749
34 -0.000045473280591
35 0.0
36 -0.000018040836397
37 0.000842667438054
38 0.0
39 0.000952987428183
40 -0.000019113226407
41 0.000103701426458
42 -0.000084588200050
43 0.0
44 -0.000045449566277
45 0.0
46 -0.18591680930433
47 -0.000722393362662
48 0.000440764101749
49 -0.000045473280591
50 0.0
51 0.000018040836397
52 0.000842667438054
53 0.0
54 -0.000952987428183
55 0.000019113226407
56 -0.000103701426458
57 0.000084588200050
58 0.0
59 -0.000045449566277
60 0.0
61 -0.18591680930433
62 -0.000722393362662
63 0.000440764101749
64 -0.000045473280591
65 0.0
66 -0.000018040836397
67 0.000842667438054
68 0.0
69 0.000952987428183
70 0.000019113226407
71 -0.000103701426458
72 0.000084588200050
73 0.0
74 0.000045449566277
75 0.0
76 0.18591680930433
77 0.000722393362662
78 -0.000440764101749
79 -0.000045473280591
80 0.0
81 0.000018040836397
82 0.000842667438054
83 0.0
84 -0.000952987428183
85 -0.000019113226407
86 0.000103701426458
87 -0.000084588200050
88 0.0
89 0.000045449566277
90 0.0
91 -0.000224458826148
92 0.000500402100113
93 0.000265706066846
94 0.0
95 0.0
96 0.000224458826148
97 -0.000500402100113
98 0.000265706066846
99 0.0
100 0.0
101 0.000004487676761
102 0.000321481711430
103 0.000003176765009
104 0.0
105 -0.000035998524971
106 -0.000004487676761
107 -0.000321481711430
108 0.000003176765009
109 0.0
110 0.000035998524971
111 -0.000004487676761
112 -0.000321481711430
113 0.000003176765009
114 0.0
115 -0.000035998524971
116 0.000004487676761
117 0.000321481711430
118 0.000003176765009
119 0.0
120 0.000035998524971
 Sym=      1.5
 Ene=     -11.2542
 Spin= Alpha
 Occup=    2.000000
1 0.0
2 0.0
3 0.0
4 0.0
5 0.0
6 0.000088750951642
7 0.0
8 0.0
9 -0.001432226296866
10 0.0
11 0.0
12 0.0
13 0.0
14 -0.000069437388498
15 0.0
16 0.0
17 0.0
18 0.0
19 0.0
20 0.0
21 0.000088750951642
22 0.0
23 0.0
24 -0.001432226296866
25 0.0
26 0.0
27 0.0
28 0.0
29 0.000069437388498
30 0.0
31 0.50098845090626
32 0.002177392524749
33 -0.003959105700893
34 0.000021469646954
35 0.0
36 0.000074642503261
37 -0.000432643385524
38 0.0
39 -0.000708038465962
40 -0.000016661215740
41 -0.000052549839724
42 0.000069211055464
43 0.0
44 -0.000036844198074
45 0.0
46 0.50098845090626
47 0.002177392524749
48 -0.003959105700893
49 -0.000021469646954
50 0.0
51 0.000074642503261
52 0.000432643385524
53 0.0
54 -0.000708038465962
55 -0.000016661215740
56 -0.000052549839724
57 0.000069211055464
58 0.0
59 0.000036844198074
60 0.0
61 -0.50098845090626
62 -0.002177392524749
63 0.003959105700893
64 0.000021469646954
65 0.0
66 0.000074642503261
67 -0.000432643385524
68 0.0
69 -0.000708038465962
70 0.000016661215740
71 0.000052549839724
72 -0.000069211055464
73 0.0
74 0.000036844198074
75 0.0
76 -0.50098845090626
77 -0.002177392524749
78 0.003959105700893
79 -0.000021469646954
80 0.0
81 0.000074642503261
82 0.000432643385524
83 0.0
84 -0.000708038465962
85 0.000016661215740
86 0.000052549839724
87 -0.000069211055464
88 0.0
89 -0.000036844198074
90 0.0
91 0.0
92 0.0
93 0.0
94 0.0
95 0.000016737936337
96 0.0
97 0.0
98 0.0
99 0.0
100 0.000016737936337
101 -0.000139228113289
102 0.000495964180093
103 0.000100891356111
104 0.0
105 -0.000156590457532
106 -0.000139228113289
107 0.000495964180093
108 -0.000100891356111
109 0.0
110 -0.000156590457532
111 0.000139228113289
112 -0.000495964180093
113 0.000100891356111
114 0.0
115 -0.000156590457532
116 0.000139228113289
117 -0.000495964180093
118 -0.000100891356111
119 0.0
120 -0.000156590457532
 Sym=      2.1
 Ene=     -11.2535
 Spin= Alpha
 Occup=    2.000000
1 0.44122046256242
2 0.001706505155922
3 -0.006113501159838
4 0.000247805214460
5 0.0
6 0.0
7 0.001782905953928
8 0.0
9 0.0
10 0.000218203316290
11 -0.000436055850540
12 0.000217852534249
13 0.0
14 0.0
15 0.0
16 0.44122046256242
17 0.001706505155922
18 -0.006113501159838
19 -0.000247805214460
20 0.0
21 0.0
22 -0.001782905953928
23 0.0
24 0.0
25 0.000218203316290
26 -0.000436055850540
27 0.000217852534249
28 0.0
29 0.0
30 0.0
31 -0.39224701080558
32 -0.001561710607098
33 0.003842487132730
34 -0.000247181724827
35 0.0
36 -0.000669694819126
37 0.000068310587985
38 0.0
39 0.000738416773842
40 0.000020790049076
41 0.000259229820476
42 -0.000280019869553
43 0.0
44 -0.000043121841098
45 0.0
46 -0.39224701080558
47 -0.001561710607098
48 0.003842487132730
49 0.000247181724827
50 0.0
51 -0.000669694819126
52 -0.000068310587985
53 0.0
54 0.000738416773842
55 0.000020790049076
56 0.000259229820476
57 -0.000280019869553
58 0.0
59 0.000043121841098
60 0.0
61 -0.39224701080558
62 -0.001561710607098
63 0.003842487132730
64 0.000247181724827
65 0.0
66 0.000669694819126
67 -0.000068310587985
68 0.0
69 -0.000738416773842
70 0.000020790049076
71 0.000259229820476
72 -0.000280019869553
73 0.0
74 -0.000043121841098
75 0.0
76 -0.39224701080558
77 -0.001561710607098
78 0.003842487132730
79 -0.000247181724827
80 0.0
81 0.000669694819126
82 0.000068310587985
83 0.0
84 -0.000738416773842
85 0.000020790049076
86 0.000259229820476
87 -0.000280019869553
88 0.0
89 0.000043121841098
90 0.0
91 -0.000263119150809
92 0.000060932038034
93 0.000312609778681
94 0.0
95 0.0
96 -0.000263119150809
97 0.000060932038034
98 -0.000312609778681
99 0.0
100 0.0
101 0.000596876626468
102 -0.000204837513087
103 -0.000141731382692
104 0.0
105 0.000202630479633
106 0.000596876626468
107 -0.000204837513087
108 0.000141731382692
109 0.0
110 0.000202630479633
111 0.000596876626468
112 -0.000204837513087
113 0.000141731382692
114 0.0
115 -0.000202630479633
116 0.000596876626468
117 -0.000204837513087
118 -0.000141731382692
119 0.0
120 -0.000202630479633
 Sym=      1.6
 Ene=     -11.2531
 Spin= Alpha
 Occup=    2.000000
1 0.0
2 0.0
3 0.0
4 0.0
5 0.0
6 0.000135591089760
7 0.0
8 0.0
9 -0.000679066021161
10 0.0
11 0.0
12 0.0
13 0.0
14 -0.000184810258576
15 0.0
16 0.0
17 0.0
18 0.0
19 0.0
20 0.0
21 -0.000135591089760
22 0.0
23 0.0
24 0.000679066021161
25 0.0
26 0.0
27 0.0
28 0.0
29 -0.000184810258576
30 0.0
31 0.50122721080476
32 0.002377549332948
33 -0.005738002532813
34 -0.000029535580759
35 0.0
36 0.000011994168431
37 0.001014959064276
38 0.0
39 -0.001101832333064
40 0.000249823045243
41 -0.000411737994675
42 0.000161914949432
43 0.0
44 -0.000068173215266
45 0.0
46 -0.50122721080476
47 -0.002377549332948
48 0.005738002532813
49 -0.000029535580759
50 0.0
51 -0.000011994168431
52 0.001014959064276
53 0.0
54 0.001101832333064
55 -0.000249823045243
56 0.000411737994675
57 -0.000161914949432
58 0.0
59 -0.000068173215266
60 0.0
61 0.50122721080476
62 0.002377549332948
63 -0.005738002532813
64 0.000029535580759
65 0.0
66 -0.000011994168431
67 -0.001014959064276
68 0.0
69 0.001101832333064
70 0.000249823045243
71 -0.000411737994675
72 0.000161914949432
73 0.0
74 -0.000068173215266
75 0.0
76 -0.50122721080476
77 -0.002377549332948
78 0.005738002532813
79 0.000029535580759
80 0.0
81 0.000011994168431
82 -0.001014959064276
83 0.0
84 -0.001101832333064
85 -0.000249823045243
86 0.000411737994675
87 -0.000161914949432
88 0.0
89 -0.000068173215266
90 0.0
91 0.0
92 0.0
93 0.0
94 0.0
95 0.000020690634170
96 0.0
97 0.0
98 0.0
99 0.0
100 -0.000020690634170
101 -0.000264843669476
102 0.000192172905996
103 0.000149623866537
104 0.0
105 -0.000271301081321
106 0.000264843669476
107 -0.000192172905996
108 0.000149623866537
109 0.0
110 0.000271301081321
111 -0.000264843669476
112 0.000192172905996
113 -0.000149623866537
114 0.0
115 0.000271301081321
116 0.000264843669476
117 -0.000192172905996
118 -0.000149623866537
119 0.0
120 -0.000271301081321
 Sym=      2.2
 Ene=     -11.2528
 Spin= Alpha
 Occup=    2.000000
1 -0.26337501745552
2 -0.001495079466478
3 0.006381346418407
4 0.000069988645178
5 0.0
6 0.0
7 -0.002543534706578
8 0.0
9 0.0
10 -0.000292757766560
11 0.000523213918802
12 -0.000230456152242
13 0.0
14 0.0
15 0.0
16 0.26337501745552
17 0.001495079466478
18 -0.006381346418407
19 0.000069988645178
20 0.0
21 0.0
22 -0.002543534706578
23 0.0
24 0.0
25 0.000292757766560
26 -0.000523213918802
27 0.000230456152242
28 0.0
29 0.0
30 0.0
31 0.46552160323050
32 0.002376452887662
33 -0.007998019032023
34 -0.000016530285498
35 0.0
36 0.000076243160628
37 0.001613634128160
38 0.0
39 -0.002208390365393
40 0.000243330672255
41 -0.000535634919643
42 0.000292304247388
43 0.0
44 -0.000061320969992
45 0.0
46 -0.46552160323050
47 -0.002376452887662
48 0.007998019032023
49 -0.000016530285498
50 0.0
51 -0.000076243160628
52 0.001613634128160
53 0.0
54 0.002208390365393
55 -0.000243330672255
56 0.000535634919643
57 -0.000292304247388
58 0.0
59 -0.000061320969992
60 0.0
61 -0.46552160323050
62 -0.002376452887662
63 0.007998019032023
64 -0.000016530285498
65 0.0
66 0.000076243160628
67 0.001613634128160
68 0.0
69 -0.002208390365393
70 -0.000243330672255
71 0.000535634919643
72 -0.000292304247388
73 0.0
74 0.000061320969992
75 0.0
76 0.46552160323050
77 0.002376452887662
78 -0.007998019032023
79 -0.000016530285498
80 0.0
81 -0.000076243160628
82 0.001613634128160
83 0.0
84 0.002208390365393
85 0.000243330672255
86 -0.000535634919643
87 0.000292304247388
88 0.0
89 0.000061320969992
90 0.0
91 0.000291418538830
92 0.000325558589825
93 -0.000239354778025
94 0.0
95 0.0
96 -0.000291418538830
97 -0.000325558589825
98 -0.000239354778025
99 0.0
100 0.0
101 -0.000364796627205
102 -0.000130244621505
103 0.000159134380251
104 0.0
105 -0.000280124752941
106 0.000364796627205
107 0.000130244621505
108 0.000159134380251
109 0.0
110 0.000280124752941
111 0.000364796627205
112 0.000130244621505
113 0.000159134380251
114 0.0
115 -0.000280124752941
116 -0.000364796627205
117 -0.000130244621505
118 0.000159134380251
119 0.0
120 0.000280124752941
 Sym=      3.1
 Ene=      -1.1505
 Spin= Alpha
 Occup=    2.000000
1 -0.009803502058396
2 0.15128589147833
3 0.076332962021960
4 -0.054911525825672
5 0.0
6 0.0
7 -0.005209710867836
8 0.0
9 0.0
10 0.000365924245423
11 -0.008956142428687
12 0.008590218183264
13 0.0
14 0.0
15 0.0
16 -0.009803502058396