[Molden Format]
[Molpro variables]
_NUMVAR=  805.0000000000000    
_AVOGAD= 0.6022136736000000E+24
_BOLTZ= 0.1380658000000000E-22
_CLIGHT=  29979245800.00000    
_EV2006= 0.3674930886769165E-01
_EV= 0.3674932534394180E-01
_ENULL= 0.8854187817000000E-11
_KJOULE= 0.3808798324128737E-03
_KJOULE/MOL= 0.3808798324128737E-03
_CM= 0.4556335267302901E-05
_CM-1= 0.4556335267302901E-05
_DEB2SI= 0.3335641000000000E-29
_AMU2AU=  1822.888390000000    
_KCAL= 0.1593601117815568E-02
_KCAL/MOL= 0.1593601117815568E-02
_KELVIN2006= 0.3166828861084835E-05
_KELVIN= 0.3166814820820034E-05
_JOULE= 0.4359748200000000E-17
_HERTZ2006= 0.1519829850815779E-15
_HERTZ= 0.1519829846011223E-15
_HZ2006= 0.1519829850815779E-15
_HZ= 0.1519829846011223E-15
_JPCAL=  4.184000000000000    
_PLANCK= 0.6626075540000000E-33
_TOA2006= 0.5291772490000000    
_TOA= 0.5291772090000000    
_TOANG2006= 0.5291772490000000    
_TOANG= 0.5291772090000000    
_TORAD= 0.1745329251994330E-01
_TOCM=  219474.6306700000    
_TODEBYE=  2.541580000000000    
_TOEV2006=  27.21139610000000    
_TOE= 0.4803242000000000E-09
_TOEV=  27.21138390000000    
_TOHERTZ2006=  6579683899900000.    
_TOHERTZ=  6579683920700000.    
_TOHZ2006=  6579683899900000.    
_TOHZ=  6579683920700000.    
_TOK2006=  315773.3000000000    
_TOK=  315774.7000000000    
_TOKCAL=  627.5096000000000    
_TOKELVIN2006=  315773.3000000000    
_TOKELVIN=  315774.7000000000    
_TOKJ=  2625.500000000000    
_TOKJOULE=  2625.500000000000    
_TOKG= 0.1660565586000000E-26
_ANG2006=  1.889725988578923    
_ANG=  1.889726131421507    
_ANGSTROM2006=  1.889725988578923    
_ANGSTROM=  1.889726131421507    
_RPAREF=  0.000000000000000    
_RPADISS=  0.000000000000000    
_IGNORE_UNDEF=  2.000000000000000    
_STRICTCHECK=  0.000000000000000    
_SEW_ONEEL=  0.000000000000000    
_CPPDONE=FALSE
_DKROLL_DONE=  0.000000000000000    
_FOCKDONE=TRUE
_GRADONE=FALSE
_HESSDONE=FALSE
_INTDONE=TRUE
_SCFDONE=TRUE
_MODUL_BLOCK=FALSE
_MODUL_CUDA=FALSE
_MODUL_SLATER=FALSE
_MODUL_MRCC=FALSE
_MODUL_NBO6=FALSE
_MODUL_NECI=TRUE
_MODUL_AIMS=TRUE
_MRCC_EXEC=
_FITC_AO_SAVED=FALSE
_FITC_MO_SAVED=FALSE
_SHARED_FS=TRUE
_LSTYP=SEWARD
_INTYP=INTS
_GEOMTYP=ZMAT
_GRADTYP=ALASKA
_DIRECT=FALSE
_DKHO= -1.000000000000000    
_SYNCM=  0.000000000000000    
_BASIS=USERDEF
_ZORIENT=  1.000000000000000    
_NELEC=  42.00000000000000    
!SPIN=  0.000000000000000    
_QSDSTEP=  0.000000000000000    
_QSDIRC=  0.000000000000000    
_PROGRAM=HF-SCF
_CPUSTEP=  3.350000000000001    
_SYSSTEP= 0.4000000000000001E-01
_WALLSTEP= 0.8100000000000001    
!DFSCF=  0.000000000000000    
!SCSGRD=  0.000000000000000    
_BASINP=  610.0000000000000    
_CPUTOT=  5.180000000000001    
_CPUSORT= 0.2599999999999998    
_SYSSORT= 0.1200000000000000    
_WALLSORT= 0.4300000034272671    
_DFTEXFAC=  1.000000000000000    
_DMX=-0.8718533513225442    
_DMY=  0.000000000000000    
_DMZ=  0.000000000000000    
_DMX_SCF=-0.8718533513225442    
_DMY_SCF=  0.000000000000000    
_DMZ_SCF=  0.000000000000000    
_EHOMO=-0.3439228265404082    
_ELUMO= 0.1154928063196933    
_ENERGY= -246.7143075579535    
_ENUC=  205.5266160318501    
_EPS1= -15.56763025066594    
_EPS2=-0.5359802397565221    
_EPS3= -11.27916186761277    
_EPS4=-0.3439228265404082    
_GRADEXFAC=  9999.000000000000    
_GRADMETHOD=  1.000000000000000    
_NMRMETHOD=  0.000000000000000    
!GRID_FREEZE= -1.000000000000000    
_ITERATIONS=  11.00000000000000    
_LASTNELEC=  42.00000000000000    
_LASTSPIN=  0.000000000000000    
_LASTSYM=  1.000000000000000    
_MPP_PROG=  0.000000000000000    
_NPROC_MPP=  1.000000000000000    
_NPROC_MPPX=  1.000000000000000    
_NPROC_SMP=  16.00000000000000    
_NUMSTEP=  0.000000000000000    
_ORBITAL=  2100.200000000000    
_PI=  3.141592653589793    
_SEIG_MIN= 0.8148194445629235E-03
_SEWPROP=TRUE
_STATUS=  1.000000000000000    
_SYSTOT= 0.2200000000000000    
_VERSION=  2012001.000000000    
_WALLTOT=  4.260000000000000    
_DATE=24-Jan-19
_LASTORB=RHF
_MACHINE=Linux-4.9.0-8-amd64/nympha18.meta.zcu.cz(x86_64) (16 PROC) 64 bit serial version
_OUTPUT=/auto/brno2/home/masiz4am/git/UKRmol-in/tests/suite/C2v_target_HF2/molpro.xml
_PGROUP=C2v
_TIME=16:17:26
_LIBMOL=/afs/ics.muni.cz/software/molpro-2012.1/molprop_2012_1_Linux_x86_64_i8/lib/
!VIBCNT=  0.000000000000000    
!RGHFCNT=  0.000000000000000    
!SURFREC=  0.000000000000000    
!POLYREC=  0.000000000000000    
!DIPREC=  0.000000000000000    
!VSCFREC=  0.000000000000000    
!VCIREC=  0.000000000000000    
!PVCIREC=  0.000000000000000    
!VMP2REC=  0.000000000000000    
!VMCSCFREC=  0.000000000000000    
!VMRCIREC=  0.000000000000000    
!VIBINFO=  0.000000000000000    
!GAREC=  0.000000000000000    
!SCFORB=  21002.00000000000    
!NEWMOL= -1.000000000000000    
!NEWSYM= -1.000000000000000    
_SLFILES=slscratch
_NGSSTO=  9.000000000000000    
_SIN=SIN
_COS=COS
_TAN=TAN
_ACOS=ACOS
_ASIN=ASIN
_ATAN=ATAN
_COSH=COSH
_SINH=SINH
_TANH=TANH
_ABS=ABS
_MOD=MOD
_ERF=ERF
_REFC=REFC
_ERFC=ERFC
_HYPOT=HYPOT
_J0=J0
_J1=J1
_JN=JN
_GAMMA=GAMMA
_LGAMMA=LGAMMA
_Y0=Y0
_Y1=Y1
_YN=YN
_EXP=EXP
_LOG=LOG
_LOG10=LOG10
_SQRT=SQRT
_INT=INT
_NINT=NINT
_MAX=MAX
_MIN=MIN
_COSMO=  0.000000000000000    
_COSMOIT=  0.000000000000000    
_COSMOES=  0.000000000000000    
_COSMOEDS=  0.000000000000000    
_COSMOEC=  0.000000000000000    
_COSMOEDCORR=  0.000000000000000    
_FEPSI=  1.000000000000000    
_SL_IsMM=  0.000000000000000    
_SL_NSYM=  4.000000000000000    
_SL_System_BitSw=  0.000000000000000    
_SL_Unique_atoms=  0.000000000000000    
_SL_GRAD=  0.000000000000000    
_SL_MAXUPD_Hess=  5.000000000000000    
_SL_N_PRINT_COD=  5.000000000000000    
_SL_PRINT_CODES=  0.000000000000000    
_SL_BasType=  0.000000000000000    
_SL_Energy_Pred=  0.000000000000000    
_SL_New_Coords=  0.000000000000000    
_SL_Total_Nuclea=  0.000000000000000    
_SL_Highest_Mltp=  0.000000000000000    
_SL_Ref_Geom=  0.000000000000000    
_SL_Symmetry_ope=  1.000000000000000    
_SL_agrad=  0.000000000000000    
_SL_GrdMax=  0.000000000000000    
_SL_GrdNorm=  0.000000000000000    
_SL_GrdRMS=  0.000000000000000    
!LATTICE= -1.000000000000000    
!NEWLATTICE=  0.000000000000000    
!LATGRAD_VAR=FALSE
!SEW_LATTICE=  1.000000000000000    
!LOCAL=  0.000000000000000    
!SAVEDOM= -1.000000000000000    
!RESTDOM= -1.000000000000000    
!SAVEDOM_HF= -1.000000000000000    
!RESTDOM_HF= -1.000000000000000    
!HESSREC=  0.000000000000000    
!FREQREC=  0.000000000000000    
!NMODREC=  0.000000000000000    
!GTASKS=  0.000000000000000    
!HTASKS=  0.000000000000000    
!THRCHG= 0.1000000000000000    
!DEBUG= -1.000000000000000    
!CFIT_CPHF=  0.000000000000000    
!RDOMAUX_CPHF=  3.000000000000000    
!THRAO_CPHF= 0.1000000000000000E-09
!THRMO_CPHF= 0.1000000000000000E-08
!THROV_CPHF= 0.1000000000000000E-11
!THRSW_CPHF= 0.1000000000000000E-09
!THRPROD_CPHF= 0.1000000000000000E-08
!THRAOPR_CPHF= 0.1000000000000000E-11
!CFIT_SCFGRD=  0.000000000000000    
!RDOMAUX_SCFGRD=  5.000000000000000    
!THRAO_SCFGRD= 0.1000000000000000E-09
!THRMO_SCFGRD= 0.1000000000000000E-08
!THROV_SCFGRD= 0.1000000000000000E-11
!THRSW_SCFGRD= 0.1000000000000000E-09
!THRPROD_SCFGRD= 0.1000000000000000E-08
!THRAOPR_SCFGRD= 0.1000000000000000E-11
!LOCFIT_SCF=  0.000000000000000    
!LOCFIT_MP2= -1.000000000000000    
_RIDOM=  0.000000000000000    
!CC2_METHOD=  0.000000000000000    
_BASIS2006=FALSE
_SVDDEL= -1.000000000000000    
_SVDDELA= -1.000000000000000    
_SVDDELP= -1.000000000000000    
_SVDDELF= -1.000000000000000    
_SVDDELS= -1.000000000000000    
_SVDDEL_ABS= -1.000000000000000    
_SVDDELA_ABS= -1.000000000000000    
_SVDDELP_ABS= -1.000000000000000    
_SVDDELF_ABS= -1.000000000000000    
_SVDDELS_ABS= -1.000000000000000    
_MAXBASIS=  0.000000000000000    
!OPT_CONICAL=  0.000000000000000    
!CLEARSP_JGRID=  0.000000000000000    
_4EXT_NDISKS=  1.000000000000000    
!ZMP=  0.000000000000000    
_MAXIT_ZMP=  500.0000000000000    
_MAXDIS_ZMP=  100.0000000000000    
_ACCU_ZMP=  14.00000000000000    
_SHIFTA_ZMP= -100.0000000000000    
!EMBEDFLAG=  1.000000000000000    
!EMBED=FALSE
!EMBED_F12=FALSE
!EMBEDNUC=  0.000000000000000    
_EMBEDENERGY=  0.000000000000000    
_KSPACETIME=  0.000000000000000    
_RSPACETIME=  0.000000000000000    
!EMBED_DFC=FALSE
!NUM_VOIDS=  0.000000000000000    
_IBODY=  0.000000000000000    
_EMBE_TOTAL=  0.000000000000000    
_EMBE_HF=  0.000000000000000    
_EMBE_CORR=  0.000000000000000    
!EDFT=  0.000000000000000    
_IFASTLATGRAD=  0.000000000000000    
_SINDEX=  0.000000000000000    
GX1=  2.696450217000000    
GY1=  0.000000000000000    
GZ1=  0.000000000000000    
GX2=  1.366649938000000    
GY2=  0.000000000000000    
GZ2= -2.157500324000000    
GX3= -1.275187193000000    
GY3=  0.000000000000000    
GZ3= -2.266726495000000    
GX4= -2.628609049000000    
GY4=  0.000000000000000    
GZ4=  0.000000000000000    
GX5=  2.474029451000000    
GY5=  0.000000000000000    
GZ5= -3.891324050000000    
GX6= -2.232900397000000    
GY6=  0.000000000000000    
GZ6= -4.081997416000000    
GX7= -4.682552381000000    
GY7=  0.000000000000000    
GZ7=  0.000000000000000    
GX8= -1.275187193000000    
GY8=  0.000000000000000    
GZ8=  2.266726495000000    
GX9=  1.366649938000000    
GY9=  0.000000000000000    
GZ9=  2.157500324000000    
GX10= -2.232900397000000    
GY10=  0.000000000000000    
GZ10=  4.081997416000000    
GX11=  2.474029451000000    
GY11=  0.000000000000000    
GZ11=  3.891324050000000    
[Atoms] Angs
N     1    7         1.4269000000        0.0000000000        0.0000000000
C     2    6         0.7231999999        0.0000000000       -1.1416999999
C     3    6        -0.6747999997        0.0000000000       -1.1995000002
C     4    6        -1.3910000001        0.0000000000        0.0000000000
H     5    1         1.3091999999        0.0000000000       -2.0592000001
H     6    1        -1.1816000001        0.0000000000       -2.1600999997
H     7    1        -2.4779000000        0.0000000000        0.0000000000
C     8    6        -0.6747999997        0.0000000000        1.1995000002
C     9    6         0.7231999999        0.0000000000        1.1416999999
H    10    1        -1.1816000001        0.0000000000        2.1600999997
H    11    1         1.3091999999        0.0000000000        2.0592000001
[GTO]
  1 0
 s    8  1.00
  0.9046000000D+04  0.6996174134D-03
  0.1357000000D+04  0.5386054630D-02
  0.3093000000D+03  0.2739102119D-01
  0.8773000000D+02  0.1031505920D+00
  0.2856000000D+02  0.2785706633D+00
  0.1021000000D+02  0.4482948495D+00
  0.3838000000D+01  0.2780859284D+00
  0.7466000000D+00  0.1543156123D-01
 s    8  1.00
  0.9046000000D+04 -0.3049900960D-03
  0.1357000000D+04 -0.2408026379D-02
  0.3093000000D+03 -0.1194444873D-01
  0.8773000000D+02 -0.4892599291D-01
  0.2856000000D+02 -0.1344727247D+00
  0.1021000000D+02 -0.3151125777D+00
  0.3838000000D+01 -0.2428578325D+00
  0.7466000000D+00  0.1094382207D+01
 s    1  1.00
  0.2248000000D+00  0.1000000000D+01
 p    3  1.00
  0.1355000000D+02  0.5890567677D-01
  0.2917000000D+01  0.3204611067D+00
  0.7973000000D+00  0.7530420618D+00
 p    1  1.00
  0.2185000000D+00  0.1000000000D+01
 d    1  1.00
  0.8170000000D+00  0.1000000000D+01
  
  2 0
 s    8  1.00
  0.6665000000D+04  0.6915839628D-03
  0.1000000000D+04  0.5325796153D-02
  0.2280000000D+03  0.2706072104D-01
  0.6471000000D+02  0.1016568461D+00
  0.2106000000D+02  0.2745748236D+00
  0.7495000000D+01  0.4482943189D+00
  0.2797000000D+01  0.2849026107D+00
  0.5215000000D+00  0.1519485921D-01
 s    8  1.00
  0.6665000000D+04 -0.2932696527D-03
  0.1000000000D+04 -0.2318035474D-02
  0.2280000000D+03 -0.1149978604D-01
  0.6471000000D+02 -0.4682672701D-01
  0.2106000000D+02 -0.1284661688D+00
  0.7495000000D+01 -0.3012662725D+00
  0.2797000000D+01 -0.2556307023D+00
  0.5215000000D+00  0.1093793361D+01
 s    1  1.00
  0.1596000000D+00  0.1000000000D+01
 p    3  1.00
  0.9439000000D+01  0.5697925159D-01
  0.2002000000D+01  0.3132072115D+00
  0.5456000000D+00  0.7603767417D+00
 p    1  1.00
  0.1517000000D+00  0.1000000000D+01
 d    1  1.00
  0.5500000000D+00  0.1000000000D+01
  
  9 0
 s    8  1.00
  0.6665000000D+04  0.6915839628D-03
  0.1000000000D+04  0.5325796153D-02
  0.2280000000D+03  0.2706072104D-01
  0.6471000000D+02  0.1016568461D+00
  0.2106000000D+02  0.2745748236D+00
  0.7495000000D+01  0.4482943189D+00
  0.2797000000D+01  0.2849026107D+00
  0.5215000000D+00  0.1519485921D-01
 s    8  1.00
  0.6665000000D+04 -0.2932696527D-03
  0.1000000000D+04 -0.2318035474D-02
  0.2280000000D+03 -0.1149978604D-01
  0.6471000000D+02 -0.4682672701D-01
  0.2106000000D+02 -0.1284661688D+00
  0.7495000000D+01 -0.3012662725D+00
  0.2797000000D+01 -0.2556307023D+00
  0.5215000000D+00  0.1093793361D+01
 s    1  1.00
  0.1596000000D+00  0.1000000000D+01
 p    3  1.00
  0.9439000000D+01  0.5697925159D-01
  0.2002000000D+01  0.3132072115D+00
  0.5456000000D+00  0.7603767417D+00
 p    1  1.00
  0.1517000000D+00  0.1000000000D+01
 d    1  1.00
  0.5500000000D+00  0.1000000000D+01
  
  3 0
 s    8  1.00
  0.6665000000D+04  0.6915839628D-03
  0.1000000000D+04  0.5325796153D-02
  0.2280000000D+03  0.2706072104D-01
  0.6471000000D+02  0.1016568461D+00
  0.2106000000D+02  0.2745748236D+00
  0.7495000000D+01  0.4482943189D+00
  0.2797000000D+01  0.2849026107D+00
  0.5215000000D+00  0.1519485921D-01
 s    8  1.00
  0.6665000000D+04 -0.2932696527D-03
  0.1000000000D+04 -0.2318035474D-02
  0.2280000000D+03 -0.1149978604D-01
  0.6471000000D+02 -0.4682672701D-01
  0.2106000000D+02 -0.1284661688D+00
  0.7495000000D+01 -0.3012662725D+00
  0.2797000000D+01 -0.2556307023D+00
  0.5215000000D+00  0.1093793361D+01
 s    1  1.00
  0.1596000000D+00  0.1000000000D+01
 p    3  1.00
  0.9439000000D+01  0.5697925159D-01
  0.2002000000D+01  0.3132072115D+00
  0.5456000000D+00  0.7603767417D+00
 p    1  1.00
  0.1517000000D+00  0.1000000000D+01
 d    1  1.00
  0.5500000000D+00  0.1000000000D+01
  
  8 0
 s    8  1.00
  0.6665000000D+04  0.6915839628D-03
  0.1000000000D+04  0.5325796153D-02
  0.2280000000D+03  0.2706072104D-01
  0.6471000000D+02  0.1016568461D+00
  0.2106000000D+02  0.2745748236D+00
  0.7495000000D+01  0.4482943189D+00
  0.2797000000D+01  0.2849026107D+00
  0.5215000000D+00  0.1519485921D-01
 s    8  1.00
  0.6665000000D+04 -0.2932696527D-03
  0.1000000000D+04 -0.2318035474D-02
  0.2280000000D+03 -0.1149978604D-01
  0.6471000000D+02 -0.4682672701D-01
  0.2106000000D+02 -0.1284661688D+00
  0.7495000000D+01 -0.3012662725D+00
  0.2797000000D+01 -0.2556307023D+00
  0.5215000000D+00  0.1093793361D+01
 s    1  1.00
  0.1596000000D+00  0.1000000000D+01
 p    3  1.00
  0.9439000000D+01  0.5697925159D-01
  0.2002000000D+01  0.3132072115D+00
  0.5456000000D+00  0.7603767417D+00
 p    1  1.00
  0.1517000000D+00  0.1000000000D+01
 d    1  1.00
  0.5500000000D+00  0.1000000000D+01
  
  4 0
 s    8  1.00
  0.6665000000D+04  0.6915839628D-03
  0.1000000000D+04  0.5325796153D-02
  0.2280000000D+03  0.2706072104D-01
  0.6471000000D+02  0.1016568461D+00
  0.2106000000D+02  0.2745748236D+00
  0.7495000000D+01  0.4482943189D+00
  0.2797000000D+01  0.2849026107D+00
  0.5215000000D+00  0.1519485921D-01
 s    8  1.00
  0.6665000000D+04 -0.2932696527D-03
  0.1000000000D+04 -0.2318035474D-02
  0.2280000000D+03 -0.1149978604D-01
  0.6471000000D+02 -0.4682672701D-01
  0.2106000000D+02 -0.1284661688D+00
  0.7495000000D+01 -0.3012662725D+00
  0.2797000000D+01 -0.2556307023D+00
  0.5215000000D+00  0.1093793361D+01
 s    1  1.00
  0.1596000000D+00  0.1000000000D+01
 p    3  1.00
  0.9439000000D+01  0.5697925159D-01
  0.2002000000D+01  0.3132072115D+00
  0.5456000000D+00  0.7603767417D+00
 p    1  1.00
  0.1517000000D+00  0.1000000000D+01
 d    1  1.00
  0.5500000000D+00  0.1000000000D+01
  
  5 0
 s    3  1.00
  0.1301000000D+02  0.3349872639D-01
  0.1962000000D+01  0.2348008012D+00
  0.4446000000D+00  0.8136829579D+00
 s    1  1.00
  0.1220000000D+00  0.1000000000D+01
 p    1  1.00
  0.7270000000D+00  0.1000000000D+01
  
 11 0
 s    3  1.00
  0.1301000000D+02  0.3349872639D-01
  0.1962000000D+01  0.2348008012D+00
  0.4446000000D+00  0.8136829579D+00
 s    1  1.00
  0.1220000000D+00  0.1000000000D+01
 p    1  1.00
  0.7270000000D+00  0.1000000000D+01
  
  6 0
 s    3  1.00
  0.1301000000D+02  0.3349872639D-01
  0.1962000000D+01  0.2348008012D+00
  0.4446000000D+00  0.8136829579D+00
 s    1  1.00
  0.1220000000D+00  0.1000000000D+01
 p    1  1.00
  0.7270000000D+00  0.1000000000D+01
  
 10 0
 s    3  1.00
  0.1301000000D+02  0.3349872639D-01
  0.1962000000D+01  0.2348008012D+00
  0.4446000000D+00  0.8136829579D+00
 s    1  1.00
  0.1220000000D+00  0.1000000000D+01
 p    1  1.00
  0.7270000000D+00  0.1000000000D+01
  
  7 0
 s    3  1.00
  0.1301000000D+02  0.3349872639D-01
  0.1962000000D+01  0.2348008012D+00
  0.4446000000D+00  0.8136829579D+00
 s    1  1.00
  0.1220000000D+00  0.1000000000D+01
 p    1  1.00
  0.7270000000D+00  0.1000000000D+01
 
 
[MO]
 Sym=      1.1
 Ene=     -15.5676
 Spin= Alpha
 Occup=    2.000000
1 1.00194802659156
2 0.003268715648818
3 -0.010348349582242
4 -0.002164732157797
5 0.0
6 0.0
7 0.003250643488153
8 0.0
9 0.0
10 0.000007125729198
11 -0.000293942010398
12 0.000286816281200
13 0.0
14 0.0
15 0.0
16 0.000137533339114
17 0.000116846113873
18 0.004486887289849
19 -0.000011394678160
20 0.0
21 -0.000007556109044
22 -0.000709396710387
23 0.0
24 0.002821691778192
25 0.000098767183720
26 0.000117485970234
27 -0.000216253153953
28 0.0
29 -0.000610234569575
30 0.0
31 0.000137533339114
32 0.000116846113873
33 0.004486887289849
34 -0.000011394678160
35 0.0
36 0.000007556109044
37 -0.000709396710387
38 0.0
39 -0.002821691778192
40 0.000098767183720
41 0.000117485970234
42 -0.000216253153953
43 0.0
44 0.000610234569575
45 0.0
46 0.000116897217002
47 0.000181165972197
48 -0.004008066326868
49 -0.000089850601535
50 0.0
51 -0.000028466643417
52 -0.000871642699242
53 0.0
54 -0.002825016561490
55 -0.000028433844497
56 0.000025274846317
57 0.000003158998180
58 0.0
59 -0.000231779299108
60 0.0
61 0.000116897217002
62 0.000181165972197
63 -0.004008066326868
64 -0.000089850601535
65 0.0
66 0.000028466643417
67 -0.000871642699242
68 0.0
69 0.002825016561490
70 -0.000028433844497
71 0.000025274846317
72 0.000003158998180
73 0.0
74 0.000231779299108
75 0.0
76 -0.000213243888383
77 -0.000374078601568
78 0.004998991370415
79 -0.000059074312569
80 0.0
81 0.0
82 0.002358673474360
83 0.0
84 0.0
85 0.000146532401499
86 -0.000099681241293
87 -0.000046851160206
88 0.0
89 0.0
90 0.0
91 -0.000127519804148
92 0.000610887144231
93 -0.000047716477060
94 0.0
95 -0.000231246639482
96 -0.000127519804148
97 0.000610887144231
98 -0.000047716477060
99 0.0
100 0.000231246639482
101 -0.000085999523016
102 -0.000771401041808
103 -0.000017746476532
104 0.0
105 0.000118250379834
106 -0.000085999523016
107 -0.000771401041808
108 -0.000017746476532
109 0.0
110 -0.000118250379834
111 -0.000074544366963
112 0.000539990075737
113 -0.000095382920885
114 0.0
115 0.0
 Sym=      1.3
 Ene=     -11.2792
 Spin= Alpha
 Occup=    2.000000
1 0.0
2 0.0
3 0.0
4 0.0
5 0.0
6 -0.000250036347579
7 0.0
8 0.0
9 0.002392252557392
10 0.0
11 0.0
12 0.0
13 0.0
14 -0.000165004331545
15 0.0
16 0.70850397406426
17 0.003067202357240
18 -0.005691016032833
19 0.000169458586073
20 0.0
21 0.000268512616666
22 0.003164436604191
23 0.0
24 0.000369656041041
25 0.000287892777853
26 -0.000444061300340
27 0.000156168522487
28 0.0
29 0.000071704991324
30 0.0
31 -0.70850397406426
32 -0.003067202357240
33 0.005691016032833
34 -0.000169458586073
35 0.0
36 0.000268512616666
37 -0.003164436604191
38 0.0
39 0.000369656041041
40 -0.000287892777853
41 0.000444061300340
42 -0.000156168522487
43 0.0
44 0.000071704991324
45 0.0
46 0.012905495752401
47 -0.000148024427565
48 0.001809820542968
49 -0.000047483589527
50 0.0
51 0.000041682011196
52 0.002808811616571
53 0.0
54 -0.000856141763515
55 -0.000141903524014
56 0.000246251936847
57 -0.000104348412833
58 0.0
59 0.000006107679009
60 0.0
61 -0.012905495752401
62 0.000148024427565
63 -0.001809820542968
64 0.000047483589527
65 0.0
66 0.000041682011196
67 -0.002808811616571
68 0.0
69 -0.000856141763515
70 0.000141903524014
71 -0.000246251936847
72 0.000104348412833
73 0.0
74 0.000006107679009
75 0.0
76 0.0
77 0.0
78 0.0
79 0.0
80 0.0
81 -0.000017867337282
82 0.0
83 0.0
84 -0.002294462664279
85 0.0
86 0.0
87 0.0
88 0.0
89 -0.000112408701356
90 0.0
91 -0.000338971515484
92 0.000262835007583
93 0.000018107357390
94 0.0
95 -0.000352374191375
96 0.000338971515484
97 -0.000262835007583
98 -0.000018107357390
99 0.0
100 -0.000352374191375
101 0.000030545650257
102 0.000205746916583
103 -0.000021809963754
104 0.0
105 0.000115609959899
106 -0.000030545650257
107 -0.000205746916583
108 0.000021809963754
109 0.0
110 0.000115609959899
111 0.0
112 0.0
113 0.0
114 0.0
115 0.000055371540900
 Sym=      2.1
 Ene=     -11.2791
 Spin= Alpha
 Occup=    2.000000
1 0.000150824795689
2 0.000997242336668
3 -0.004951060285675
4 -0.000063645345334
5 0.0
6 0.0
7 0.002136229493089
8 0.0
9 0.0
10 -0.000099256233132
11 0.000513185751505
12 -0.000413929518373
13 0.0
14 0.0
15 0.0
16 0.70828908328121
17 0.002727921947259
18 -0.000765734085303
19 0.000223670650985
20 0.0
21 0.000344111143313
22 -0.000677543598422
23 0.0
24 0.002556672261394
25 0.000267918692440
26 -0.000706831050371
27 0.000438912357931
28 0.0
29 0.000128037501641
30 0.0
31 0.70828908328121
32 0.002727921947259
33 -0.000765734085303
34 0.000223670650985
35 0.0
36 -0.000344111143313
37 -0.000677543598422
38 0.0
39 -0.002556672261394
40 0.000267918692440
41 -0.000706831050371
42 0.000438912357931
43 0.0
44 -0.000128037501641
45 0.0
46 0.012665644534800
47 0.000164117729387
48 -0.003844069860897
49 -0.000065242639158
50 0.0
51 0.000017019735697
52 -0.000466343402520
53 0.0
54 -0.003028284594107
55 -0.000235705194453
56 0.000377232489572
57 -0.000141527295119
58 0.0
59 0.000016018915137
60 0.0
61 0.012665644534800
62 0.000164117729387
63 -0.003844069860897
64 -0.000065242639158
65 0.0
66 -0.000017019735697
67 -0.000466343402520
68 0.0
69 0.003028284594107
70 -0.000235705194453
71 0.000377232489572
72 -0.000141527295119
73 0.0
74 -0.000016018915137
75 0.0
76 0.000526791990571
77 -0.000325874738094
78 0.006127149705674
79 0.000048397929599
80 0.0
81 0.0
82 0.003012219631518
83 0.0
84 0.0
85 0.000155971418412
86 -0.000270430319166
87 0.000114458900754
88 0.0
89 0.0
90 0.0
91 -0.000126607230643
92 0.001489780089784
93 0.000171885118018
94 0.0
95 -0.000387082150125
96 -0.000126607230643
97 0.001489780089784
98 0.000171885118018
99 0.0
100 0.000387082150125
101 -0.000066049293960
102 -0.000679197457311
103 0.000081127808980
104 0.0
105 0.000150216203566
106 -0.000066049293960
107 -0.000679197457311
108 0.000081127808980
109 0.0
110 -0.000150216203566
111 -0.000059716467012
112 0.000762326185496
113 -0.000111511885583
114 0.0
115 0.0
 Sym=      3.1
 Ene=     -11.2653
 Spin= Alpha
 Occup=    2.000000
1 0.000001336544998
2 -0.000011348982859
3 -0.000052091601547
4 0.000011914875598
5 0.0
6 0.0
7 0.000164273762750
8 0.0
9 0.0
10 -0.000022809676230
11 0.000005189880020
12 0.000017619796211
13 0.0
14 0.0
15 0.0
16 -0.001176657193888
17 -0.000107490971106
18 0.000465937788851
19 0.000016561988936
20 0.0
21 0.000001189864971
22 -0.000391346584451
23 0.0
24 0.000007939159840
25 0.000068177864198
26 -0.000104065920018
27 0.000035888055820
28 0.0
29 -0.000073656940097
30 0.0
31 -0.001176657193888
32 -0.000107490971106
33 0.000465937788851
34 0.000016561988936
35 0.0
36 -0.000001189864971
37 -0.000391346584451
38 0.0
39 -0.000007939159840
40 0.000068177864198
41 -0.000104065920018
42 0.000035888055820
43 0.0
44 0.000073656940097
45 0.0
46 0.032265541013734
47 -0.000157530863746
48 0.001758819774615
49 0.000014505735129
50 0.0
51 -0.000049919140486
52 -0.000516595934657
53 0.0
54 0.001334667167259
55 -0.000084459039267
56 0.000330833080226
57 -0.000246374040958
58 0.0
59 0.000014167308660
60 0.0
61 0.032265541013734
62 -0.000157530863746
63 0.001758819774615
64 0.000014505735129
65 0.0
66 0.000049919140486
67 -0.000516595934657
68 0.0
69 -0.001334667167259
70 -0.000084459039267
71 0.000330833080226
72 -0.000246374040958
73 0.0
74 -0.000014167308660
75 0.0
76 1.00102858065017
77 0.004298173754095
78 -0.009275657989600
79 -0.000090310613915
80 0.0
81 0.0
82 -0.001577265231658
83 0.0
84 0.0
85 0.000495142918590
86 -0.000621916666715
87 0.000126773748125
88 0.0
89 0.0
90 0.0
91 -0.000052103666734
92 0.000135091913385
93 0.000007144497180
94 0.0
95 -0.000025172941249
96 -0.000052103666734
97 0.000135091913385
98 0.000007144497180
99 0.0
100 0.000025172941249
101 0.000138844173253
102 0.000355094711047
103 0.000075948535754
104 0.0
105 0.000108866589407
106 0.000138844173253
107 0.000355094711047
108 0.000075948535754
109 0.0
110 -0.000108866589407
111 -0.000526766085561
112 0.000837990930780
113 -0.000574380089133
114 0.0
115 0.0
 Sym=      2.3
 Ene=     -11.2474
 Spin= Alpha
 Occup=    2.000000
1 0.0
2 0.0
3 0.0
4 0.0
5 0.0
6 -0.000012149374200
7 0.0
8 0.0
9 0.000079855210900
10 0.0
11 0.0
12 0.0
13 0.0
14 0.000031073649146
15 0.0
16 -0.013287031152801
17 -0.000201178271645
18 0.001627933657995
19 0.000021583602422
20 0.0
21 0.000032557123843
22 -0.000677224339310
23 0.0
24 0.000535805334863
25 -0.000185788353984
26 0.000262980847011
27 -0.000077192493028
28 0.0
29 0.000041921606450
30 0.0
31 0.013287031152801
32 0.000201178271645
33 -0.001627933657995
34 -0.000021583602422
35 0.0
36 0.000032557123843
37 0.000677224339310
38 0.0
39 0.000535805334863
40 0.000185788353984
41 -0.000262980847011
42 0.000077192493028
43 0.0
44 0.000041921606450
45 0.0
46 0.70855059560393
47 0.003234377172148
48 -0.006832864638982
49 -0.000033533913062
50 0.0
51 0.000003745823218
52 -0.000109342336963
53 0.0
54 -0.001416380090508
55 0.000142148865686
56 -0.000349120380850
57 0.000206971515164
58 0.0
59 0.000094663571165
60 0.0
61 -0.70855059560393
62 -0.003234377172148
63 0.006832864638982
64 0.000033533913062
65 0.0
66 0.000003745823218
67 0.000109342336963
68 0.0
69 -0.001416380090508
70 -0.000142148865686
71 0.000349120380850
72 -0.000206971515164
73 0.0
74 0.000094663571165
75 0.0
76 0.0
77 0.0
78 0.0
79 0.0
80 0.0
81 0.000083115706735
82 0.0
83 0.0
84 -0.001801021283157
85 0.0
86 0.0
87 0.0
88 0.0
89 0.000162278527537
90 0.0
91 0.000111920311248
92 0.000228573926195
93 -0.000063403956024
94 0.0
95 0.000080700268151
96 -0.000111920311248
97 -0.000228573926195
98 0.000063403956024
99 0.0
100 0.000080700268151
101 -0.000346413691496
102 0.000499197375035
103 -0.000195466246884
104 0.0
105 -0.000336042946655
106 0.000346413691496
107 -0.000499197375035
108 0.000195466246884
109 0.0
110 -0.000336042946655
111 0.0
112 0.0
113 0.0
114 0.0
115 0.000039611023984
 Sym=      4.1
 Ene=     -11.2474
 Spin= Alpha
 Occup=    2.000000
1 0.000095873755843
2 0.000153154420140
3 -0.001298543112356
4 -0.000013150799583
5 0.0
6 0.0
7 0.000669356291774
8 0.0
9 0.0
10 0.000042457012376
11 -0.000060475956341
12 0.000018018943966
13 0.0
14 0.0
15 0.0
16 -0.012870989082746
17 -0.000299841941666
18 0.003254398173445
19 0.000066333004129
20 0.0
21 0.000033445340032
22 -0.001532012668214
23 0.0
24 0.000853741616256
25 -0.000149264512891
26 0.000159335527170
27 -0.000010071014278
28 0.0
29 0.000038495143895
30 0.0
31 -0.012870989082746
32 -0.000299841941666
33 0.003254398173445
34 0.000066333004129
35 0.0
36 -0.000033445340032
37 -0.001532012668214
38 0.0
39 -0.000853741616256
40 -0.000149264512891
41 0.000159335527170
42 -0.000010071014278
43 0.0
44 -0.000038495143895
45 0.0
46 0.70780856684725
47 0.003226260742070
48 -0.008267881267021
49 -0.000039681196976
50 0.0
51 -0.000012786523444
52 -0.001256653227502
53 0.0
54 -0.001738306917752
55 0.000098926368926
56 -0.000465662925160
57 0.000366736556234
58 0.0
59 0.000101422609158
60 0.0
61 0.70780856684725
62 0.003226260742070
63 -0.008267881267021
64 -0.000039681196976
65 0.0
66 0.000012786523444
67 -0.001256653227502
68 0.0
69 0.001738306917752
70 0.000098926368926
71 -0.000465662925160
72 0.000366736556234
73 0.0
74 -0.000101422609158
75 0.0
76 -0.046520552825925
77 -0.000692366514436
78 0.004846531810391
79 -0.000052037931179
80 0.0
81 0.0
82 0.002333698059527
83 0.0
84 0.0
85 -0.000299262291507
86 0.000512041972801
87 -0.000212779681294
88 0.0
89 0.0
90 0.0
91 0.000072854761140
92 0.000413474683970
93 -0.000013786340806
94 0.0
95 0.000067955231842
96 0.000072854761140
97 0.000413474683970
98 -0.000013786340806
99 0.0
100 -0.000067955231842
101 -0.000429444870200
102 0.000381393649267
103 -0.000191602080736
104 0.0
105 -0.000357655236150
106 -0.000429444870200
107 0.000381393649267
108 -0.000191602080736
109 0.0
110 0.000357655236150
111 0.000252597781576
112 0.000617705845160
113 0.000211378106585
114 0.0
115 0.0
 Sym=      5.1
 Ene=      -1.2541
 Spin= Alpha
 Occup=    2.000000
1 -0.015632954922117
2 0.31622325577547
3 0.30863369895471
4 -0.10531557654130
5 0.0
6 0.0
7 -0.047985946853011
8 0.0
9 0.0
10 0.003551167118460
11 -0.013151452373199
12 0.009600285254739
13 0.0
14 0.0
15 0.0
16 -0.011875629583307
17 0.18959536033539
18 0.055057197111791
19 0.022262149097005
20 0.0
21 0.10224386217722
22 0.003466332767256
23 0.0
24 -0.005809616746307
25 -0.002731246649002
26 -0.011091370500282
27 0.013822617149284
28 0.0
29 0.015861992215033
30 0.0
31 -0.011875629583307
32 0.18959536033539
33 0.055057197111791
34 0.022262149097005
35 0.0
36 -0.10224386217722
37 0.003466332767256
38 0.0
39 0.005809616746307
40 -0.002731246649002
41 -0.011091370500282
42 0.013822617149284
43 0.0
44 -0.015861992215033
45 0.0
46 -0.006858499844631
47 0.089822373456018
48 0.081848597821043
49 0.035852525480974
50 0.0
51 0.030178744890262
52 0.015035471030364
53 0.0
54 0.031871928721610
55 0.007776981037184
56 -0.006003605620562
57 -0.001773375416622
58 0.0
59 0.001651380780433
60 0.0
61 -0.006858499844631
62 0.089822373456018
63 0.081848597821043
64 0.035852525480974
65 0.0
66 -0.030178744890262
67 0.015035471030364
68 0.0
69 -0.031871928721610
70 0.007776981037184
71 -0.006003605620562
72 -0.001773375416622
73 0.0