[Molden Format]
[Molpro variables]
_NUMVAR=  814.0000000000000    
_AVOGAD= 0.6022136736000000E+24
_BOLTZ= 0.1380658000000000E-22
_CLIGHT=  29979245800.00000    
_EV2006= 0.3674930886769165E-01
_EV= 0.3674932534394180E-01
_ENULL= 0.8854187817000000E-11
_KJOULE= 0.3808798324128737E-03
_KJOULE/MOL= 0.3808798324128737E-03
_CM= 0.4556335267302901E-05
_CM-1= 0.4556335267302901E-05
_DEB2SI= 0.3335641000000000E-29
_AMU2AU=  1822.888390000000    
_KCAL= 0.1593601117815568E-02
_KCAL/MOL= 0.1593601117815568E-02
_KELVIN2006= 0.3166828861084835E-05
_KELVIN= 0.3166814820820034E-05
_JOULE= 0.4359748200000000E-17
_HERTZ2006= 0.1519829850815779E-15
_HERTZ= 0.1519829846011223E-15
_HZ2006= 0.1519829850815779E-15
_HZ= 0.1519829846011223E-15
_JPCAL=  4.184000000000000    
_PLANCK= 0.6626075540000000E-33
_TOA2006= 0.5291772490000000    
_TOA= 0.5291772090000000    
_TOANG2006= 0.5291772490000000    
_TOANG= 0.5291772090000000    
_TORAD= 0.1745329251994330E-01
_TOCM=  219474.6306700000    
_TODEBYE=  2.541580000000000    
_TOEV2006=  27.21139610000000    
_TOE= 0.4803242000000000E-09
_TOEV=  27.21138390000000    
_TOHERTZ2006=  6579683899900000.    
_TOHERTZ=  6579683920700000.    
_TOHZ2006=  6579683899900000.    
_TOHZ=  6579683920700000.    
_TOK2006=  315773.3000000000    
_TOK=  315774.7000000000    
_TOKCAL=  627.5096000000000    
_TOKELVIN2006=  315773.3000000000    
_TOKELVIN=  315774.7000000000    
_TOKJ=  2625.500000000000    
_TOKJOULE=  2625.500000000000    
_TOKG= 0.1660565586000000E-26
_ANG2006=  1.889725988578923    
_ANG=  1.889726131421507    
_ANGSTROM2006=  1.889725988578923    
_ANGSTROM=  1.889726131421507    
_RPAREF=  0.000000000000000    
_RPADISS=  0.000000000000000    
_IGNORE_UNDEF=  2.000000000000000    
_STRICTCHECK=  0.000000000000000    
_SEW_ONEEL=  0.000000000000000    
_CPPDONE=FALSE
_DKROLL_DONE=  0.000000000000000    
_FOCKDONE=TRUE
_GRADONE=FALSE
_HESSDONE=FALSE
_INTDONE=TRUE
_SCFDONE=TRUE
_MODUL_BLOCK=FALSE
_MODUL_CUDA=FALSE
_MODUL_SLATER=FALSE
_MODUL_MRCC=FALSE
_MODUL_NBO6=FALSE
_MODUL_NECI=TRUE
_MODUL_AIMS=TRUE
_MRCC_EXEC=
_FITC_AO_SAVED=FALSE
_FITC_MO_SAVED=FALSE
_SHARED_FS=TRUE
_LSTYP=SEWARD
_INTYP=INTS
_GEOMTYP=ZMAT
_GRADTYP=ALASKA
_DIRECT=FALSE
_DKHO= -1.000000000000000    
_SYNCM=  0.000000000000000    
_BASIS=USERDEF
_ZORIENT=  1.000000000000000    
_NELEC=  46.00000000000000    
!SPIN=  0.000000000000000    
_QSDSTEP=  0.000000000000000    
_QSDIRC=  0.000000000000000    
_PROGRAM=HF-SCF
_CPUSTEP=  5.340000000000000    
_SYSSTEP= 0.3500000000000000    
_WALLSTEP=  3.470000000000000    
!DFSCF=  0.000000000000000    
!SCSGRD=  0.000000000000000    
_BASINP=  610.0000000000000    
_CPUTOT=  8.220000000000001    
_CPUSORT= 0.4899999999999998    
_SYSSORT= 0.2700000000000000    
_WALLSORT= 0.8200000002980232    
_DFTEXFAC=  1.000000000000000    
_DMX=  0.000000000000000    
_DMY=  0.000000000000000    
_DMZ=  0.000000000000000    
_DMX_SCF=  0.000000000000000    
_DMY_SCF=  0.000000000000000    
_DMZ_SCF=  0.000000000000000    
_EHOMO=-0.2436372778089103    
_ELUMO=-0.1118322523166166    
_ENERGY= -264.3501713489396    
_ENUC=  209.7190764685884    
_EPS1= -15.69243497701784    
_EPS2= -15.69244444845636    
_GRADEXFAC=  9999.000000000000    
_GRADMETHOD=  1.000000000000000    
_NMRMETHOD=  0.000000000000000    
!GRID_FREEZE= -1.000000000000000    
_ITERATIONS=  24.00000000000000    
_LASTNELEC=  46.00000000000000    
_LASTSPIN=  0.000000000000000    
_LASTSYM=  1.000000000000000    
_MPP_PROG=  0.000000000000000    
_NPROC_MPP=  1.000000000000000    
_NPROC_MPPX=  1.000000000000000    
_NPROC_SMP=  16.00000000000000    
_NUMSTEP=  0.000000000000000    
_ORBITAL=  2100.200000000000    
_PI=  3.141592653589793    
_SEIG_MIN= 0.3661020316633836E-02
_SEWPROP=TRUE
_STATUS=  1.000000000000000    
_SYSTOT= 0.7200000000000000    
_VERSION=  2012001.000000000    
_WALLTOT=  8.090000000000000    
_DATE=24-Jan-19
_LASTORB=RHF
_MACHINE=Linux-4.9.0-8-amd64/nympha18.meta.zcu.cz(x86_64) (16 PROC) 64 bit serial version
_OUTPUT=/auto/brno2/home/masiz4am/git/UKRmol-in/tests/suite/Ci_target_HF3/molpro.xml
_PGROUP=Ci
_TIME=16:17:09
_LIBMOL=/afs/ics.muni.cz/software/molpro-2012.1/molprop_2012_1_Linux_x86_64_i8/lib/
!VIBCNT=  0.000000000000000    
!RGHFCNT=  0.000000000000000    
!SURFREC=  0.000000000000000    
!POLYREC=  0.000000000000000    
!DIPREC=  0.000000000000000    
!VSCFREC=  0.000000000000000    
!VCIREC=  0.000000000000000    
!PVCIREC=  0.000000000000000    
!VMP2REC=  0.000000000000000    
!VMCSCFREC=  0.000000000000000    
!VMRCIREC=  0.000000000000000    
!VIBINFO=  0.000000000000000    
!GAREC=  0.000000000000000    
!SCFORB=  21002.00000000000    
!NEWMOL= -1.000000000000000    
!NEWSYM= -1.000000000000000    
_SLFILES=slscratch
_NGSSTO=  9.000000000000000    
_SIN=SIN
_COS=COS
_TAN=TAN
_ACOS=ACOS
_ASIN=ASIN
_ATAN=ATAN
_COSH=COSH
_SINH=SINH
_TANH=TANH
_ABS=ABS
_MOD=MOD
_ERF=ERF
_REFC=REFC
_ERFC=ERFC
_HYPOT=HYPOT
_J0=J0
_J1=J1
_JN=JN
_GAMMA=GAMMA
_LGAMMA=LGAMMA
_Y0=Y0
_Y1=Y1
_YN=YN
_EXP=EXP
_LOG=LOG
_LOG10=LOG10
_SQRT=SQRT
_INT=INT
_NINT=NINT
_MAX=MAX
_MIN=MIN
_COSMO=  0.000000000000000    
_COSMOIT=  0.000000000000000    
_COSMOES=  0.000000000000000    
_COSMOEDS=  0.000000000000000    
_COSMOEC=  0.000000000000000    
_COSMOEDCORR=  0.000000000000000    
_FEPSI=  1.000000000000000    
_SL_IsMM=  0.000000000000000    
_SL_NSYM=  2.000000000000000    
_SL_System_BitSw=  0.000000000000000    
_SL_Unique_atoms=  0.000000000000000    
_SL_GRAD=  0.000000000000000    
_SL_MAXUPD_Hess=  5.000000000000000    
_SL_N_PRINT_COD=  5.000000000000000    
_SL_PRINT_CODES=  0.000000000000000    
_SL_BasType=  0.000000000000000    
_SL_Energy_Pred=  0.000000000000000    
_SL_New_Coords=  0.000000000000000    
_SL_Total_Nuclea=  0.000000000000000    
_SL_Highest_Mltp=  0.000000000000000    
_SL_Ref_Geom=  0.000000000000000    
_SL_Symmetry_ope=  1.000000000000000    
_SL_agrad=  0.000000000000000    
_SL_GrdMax=  0.000000000000000    
_SL_GrdNorm=  0.000000000000000    
_SL_GrdRMS=  0.000000000000000    
!LATTICE= -1.000000000000000    
!NEWLATTICE=  0.000000000000000    
!LATGRAD_VAR=FALSE
!SEW_LATTICE=  1.000000000000000    
!LOCAL=  0.000000000000000    
!SAVEDOM= -1.000000000000000    
!RESTDOM= -1.000000000000000    
!SAVEDOM_HF= -1.000000000000000    
!RESTDOM_HF= -1.000000000000000    
!HESSREC=  0.000000000000000    
!FREQREC=  0.000000000000000    
!NMODREC=  0.000000000000000    
!GTASKS=  0.000000000000000    
!HTASKS=  0.000000000000000    
!THRCHG= 0.1000000000000000    
!DEBUG= -1.000000000000000    
!CFIT_CPHF=  0.000000000000000    
!RDOMAUX_CPHF=  3.000000000000000    
!THRAO_CPHF= 0.1000000000000000E-09
!THRMO_CPHF= 0.1000000000000000E-08
!THROV_CPHF= 0.1000000000000000E-11
!THRSW_CPHF= 0.1000000000000000E-09
!THRPROD_CPHF= 0.1000000000000000E-08
!THRAOPR_CPHF= 0.1000000000000000E-11
!CFIT_SCFGRD=  0.000000000000000    
!RDOMAUX_SCFGRD=  5.000000000000000    
!THRAO_SCFGRD= 0.1000000000000000E-09
!THRMO_SCFGRD= 0.1000000000000000E-08
!THROV_SCFGRD= 0.1000000000000000E-11
!THRSW_SCFGRD= 0.1000000000000000E-09
!THRPROD_SCFGRD= 0.1000000000000000E-08
!THRAOPR_SCFGRD= 0.1000000000000000E-11
!LOCFIT_SCF=  0.000000000000000    
!LOCFIT_MP2= -1.000000000000000    
_RIDOM=  0.000000000000000    
!CC2_METHOD=  0.000000000000000    
_BASIS2006=FALSE
_SVDDEL= -1.000000000000000    
_SVDDELA= -1.000000000000000    
_SVDDELP= -1.000000000000000    
_SVDDELF= -1.000000000000000    
_SVDDELS= -1.000000000000000    
_SVDDEL_ABS= -1.000000000000000    
_SVDDELA_ABS= -1.000000000000000    
_SVDDELP_ABS= -1.000000000000000    
_SVDDELF_ABS= -1.000000000000000    
_SVDDELS_ABS= -1.000000000000000    
_MAXBASIS=  0.000000000000000    
!OPT_CONICAL=  0.000000000000000    
!CLEARSP_JGRID=  0.000000000000000    
_4EXT_NDISKS=  1.000000000000000    
!ZMP=  0.000000000000000    
_MAXIT_ZMP=  500.0000000000000    
_MAXDIS_ZMP=  100.0000000000000    
_ACCU_ZMP=  14.00000000000000    
_SHIFTA_ZMP= -100.0000000000000    
!EMBEDFLAG=  1.000000000000000    
!EMBED=FALSE
!EMBED_F12=FALSE
!EMBEDNUC=  0.000000000000000    
_EMBEDENERGY=  0.000000000000000    
_KSPACETIME=  0.000000000000000    
_RSPACETIME=  0.000000000000000    
!EMBED_DFC=FALSE
!NUM_VOIDS=  0.000000000000000    
_IBODY=  0.000000000000000    
_EMBE_TOTAL=  0.000000000000000    
_EMBE_HF=  0.000000000000000    
_EMBE_CORR=  0.000000000000000    
!EDFT=  0.000000000000000    
_IFASTLATGRAD=  0.000000000000000    
_SINDEX=  0.000000000000000    
GX1= -2.936634186000000    
GY1=  2.251986461000000    
GZ1= -1.829065784000000    
GX2= 0.7694964230000000    
GY2=-0.8326132710000000    
GZ2= -3.551551023000000    
GX3= 0.1065805460000000    
GY3= 0.7377490260000000    
GZ3= -1.239849221000000    
GX4= 0.7284893690000001    
GY4= 0.3520559520000000    
GZ4= -5.233407153000000    
GX5=-0.5822245770000000    
GY5= -2.368771527000000    
GZ5= -3.802695607000000    
GX6=  2.654309124000000    
GY6= -1.631211473000000    
GZ6= -3.351618013000000    
GX7=  1.429388738000000    
GY7=  2.291859679000000    
GZ7= -1.002688610000000    
GX8=  2.936634186000000    
GY8= -2.251986461000000    
GZ8=  1.829065784000000    
GX9=-0.7694964230000000    
GY9= 0.8326132710000000    
GZ9=  3.551551023000000    
GX10=-0.1065805460000000    
GY10=-0.7377490260000000    
GZ10=  1.239849221000000    
GX11=-0.7284893690000001    
GY11=-0.3520559520000000    
GZ11=  5.233407153000000    
GX12= 0.5822245770000000    
GY12=  2.368771527000000    
GZ12=  3.802695607000000    
GX13= -2.654309124000000    
GY13=  1.631211473000000    
GZ13=  3.351618013000000    
GX14= -1.429388738000000    
GY14= -2.291859679000000    
GZ14=  1.002688610000000    
[Atoms] Angs
N     1    7        -1.5539998824        1.1916999101       -0.9678999267
C     2    6         0.4071999695       -0.4405999669       -1.8793998580
C     3    6         0.0563999959        0.3903999705       -0.6560999503
H     4    1         0.3854999711        0.1862999861       -2.7693997908
H     5    1        -0.3080999767       -1.2534999054       -2.0122998480
H     6    1         1.4045998941       -0.8631999346       -1.7735998658
H     7    1         0.7563999430        1.2127999084       -0.5305999601
N     8    7         1.5539998824       -1.1916999101        0.9678999267
C     9    6        -0.4071999695        0.4405999669        1.8793998580
C    10    6        -0.0563999959       -0.3903999705        0.6560999503
H    11    1        -0.3854999711       -0.1862999861        2.7693997908
H    12    1         0.3080999767        1.2534999054        2.0122998480
H    13    1        -1.4045998941        0.8631999346        1.7735998658
H    14    1        -0.7563999430       -1.2127999084        0.5305999601
[GTO]
  1 0
 s    8  1.00
  0.9046000000D+04  0.6996174134D-03
  0.1357000000D+04  0.5386054630D-02
  0.3093000000D+03  0.2739102119D-01
  0.8773000000D+02  0.1031505920D+00
  0.2856000000D+02  0.2785706633D+00
  0.1021000000D+02  0.4482948495D+00
  0.3838000000D+01  0.2780859284D+00
  0.7466000000D+00  0.1543156123D-01
 s    8  1.00
  0.9046000000D+04 -0.3049900960D-03
  0.1357000000D+04 -0.2408026379D-02
  0.3093000000D+03 -0.1194444873D-01
  0.8773000000D+02 -0.4892599291D-01
  0.2856000000D+02 -0.1344727247D+00
  0.1021000000D+02 -0.3151125777D+00
  0.3838000000D+01 -0.2428578325D+00
  0.7466000000D+00  0.1094382207D+01
 s    1  1.00
  0.2248000000D+00  0.1000000000D+01
 p    3  1.00
  0.1355000000D+02  0.5890567677D-01
  0.2917000000D+01  0.3204611067D+00
  0.7973000000D+00  0.7530420618D+00
 p    1  1.00
  0.2185000000D+00  0.1000000000D+01
 d    1  1.00
  0.8170000000D+00  0.1000000000D+01
  
  8 0
 s    8  1.00
  0.9046000000D+04  0.6996174134D-03
  0.1357000000D+04  0.5386054630D-02
  0.3093000000D+03  0.2739102119D-01
  0.8773000000D+02  0.1031505920D+00
  0.2856000000D+02  0.2785706633D+00
  0.1021000000D+02  0.4482948495D+00
  0.3838000000D+01  0.2780859284D+00
  0.7466000000D+00  0.1543156123D-01
 s    8  1.00
  0.9046000000D+04 -0.3049900960D-03
  0.1357000000D+04 -0.2408026379D-02
  0.3093000000D+03 -0.1194444873D-01
  0.8773000000D+02 -0.4892599291D-01
  0.2856000000D+02 -0.1344727247D+00
  0.1021000000D+02 -0.3151125777D+00
  0.3838000000D+01 -0.2428578325D+00
  0.7466000000D+00  0.1094382207D+01
 s    1  1.00
  0.2248000000D+00  0.1000000000D+01
 p    3  1.00
  0.1355000000D+02  0.5890567677D-01
  0.2917000000D+01  0.3204611067D+00
  0.7973000000D+00  0.7530420618D+00
 p    1  1.00
  0.2185000000D+00  0.1000000000D+01
 d    1  1.00
  0.8170000000D+00  0.1000000000D+01
  
  2 0
 s    8  1.00
  0.6665000000D+04  0.6915839628D-03
  0.1000000000D+04  0.5325796153D-02
  0.2280000000D+03  0.2706072104D-01
  0.6471000000D+02  0.1016568461D+00
  0.2106000000D+02  0.2745748236D+00
  0.7495000000D+01  0.4482943189D+00
  0.2797000000D+01  0.2849026107D+00
  0.5215000000D+00  0.1519485921D-01
 s    8  1.00
  0.6665000000D+04 -0.2932696527D-03
  0.1000000000D+04 -0.2318035474D-02
  0.2280000000D+03 -0.1149978604D-01
  0.6471000000D+02 -0.4682672701D-01
  0.2106000000D+02 -0.1284661688D+00
  0.7495000000D+01 -0.3012662725D+00
  0.2797000000D+01 -0.2556307023D+00
  0.5215000000D+00  0.1093793361D+01
 s    1  1.00
  0.1596000000D+00  0.1000000000D+01
 p    3  1.00
  0.9439000000D+01  0.5697925159D-01
  0.2002000000D+01  0.3132072115D+00
  0.5456000000D+00  0.7603767417D+00
 p    1  1.00
  0.1517000000D+00  0.1000000000D+01
 d    1  1.00
  0.5500000000D+00  0.1000000000D+01
  
  9 0
 s    8  1.00
  0.6665000000D+04  0.6915839628D-03
  0.1000000000D+04  0.5325796153D-02
  0.2280000000D+03  0.2706072104D-01
  0.6471000000D+02  0.1016568461D+00
  0.2106000000D+02  0.2745748236D+00
  0.7495000000D+01  0.4482943189D+00
  0.2797000000D+01  0.2849026107D+00
  0.5215000000D+00  0.1519485921D-01
 s    8  1.00
  0.6665000000D+04 -0.2932696527D-03
  0.1000000000D+04 -0.2318035474D-02
  0.2280000000D+03 -0.1149978604D-01
  0.6471000000D+02 -0.4682672701D-01
  0.2106000000D+02 -0.1284661688D+00
  0.7495000000D+01 -0.3012662725D+00
  0.2797000000D+01 -0.2556307023D+00
  0.5215000000D+00  0.1093793361D+01
 s    1  1.00
  0.1596000000D+00  0.1000000000D+01
 p    3  1.00
  0.9439000000D+01  0.5697925159D-01
  0.2002000000D+01  0.3132072115D+00
  0.5456000000D+00  0.7603767417D+00
 p    1  1.00
  0.1517000000D+00  0.1000000000D+01
 d    1  1.00
  0.5500000000D+00  0.1000000000D+01
  
  3 0
 s    8  1.00
  0.6665000000D+04  0.6915839628D-03
  0.1000000000D+04  0.5325796153D-02
  0.2280000000D+03  0.2706072104D-01
  0.6471000000D+02  0.1016568461D+00
  0.2106000000D+02  0.2745748236D+00
  0.7495000000D+01  0.4482943189D+00
  0.2797000000D+01  0.2849026107D+00
  0.5215000000D+00  0.1519485921D-01
 s    8  1.00
  0.6665000000D+04 -0.2932696527D-03
  0.1000000000D+04 -0.2318035474D-02
  0.2280000000D+03 -0.1149978604D-01
  0.6471000000D+02 -0.4682672701D-01
  0.2106000000D+02 -0.1284661688D+00
  0.7495000000D+01 -0.3012662725D+00
  0.2797000000D+01 -0.2556307023D+00
  0.5215000000D+00  0.1093793361D+01
 s    1  1.00
  0.1596000000D+00  0.1000000000D+01
 p    3  1.00
  0.9439000000D+01  0.5697925159D-01
  0.2002000000D+01  0.3132072115D+00
  0.5456000000D+00  0.7603767417D+00
 p    1  1.00
  0.1517000000D+00  0.1000000000D+01
 d    1  1.00
  0.5500000000D+00  0.1000000000D+01
  
 10 0
 s    8  1.00
  0.6665000000D+04  0.6915839628D-03
  0.1000000000D+04  0.5325796153D-02
  0.2280000000D+03  0.2706072104D-01
  0.6471000000D+02  0.1016568461D+00
  0.2106000000D+02  0.2745748236D+00
  0.7495000000D+01  0.4482943189D+00
  0.2797000000D+01  0.2849026107D+00
  0.5215000000D+00  0.1519485921D-01
 s    8  1.00
  0.6665000000D+04 -0.2932696527D-03
  0.1000000000D+04 -0.2318035474D-02
  0.2280000000D+03 -0.1149978604D-01
  0.6471000000D+02 -0.4682672701D-01
  0.2106000000D+02 -0.1284661688D+00
  0.7495000000D+01 -0.3012662725D+00
  0.2797000000D+01 -0.2556307023D+00
  0.5215000000D+00  0.1093793361D+01
 s    1  1.00
  0.1596000000D+00  0.1000000000D+01
 p    3  1.00
  0.9439000000D+01  0.5697925159D-01
  0.2002000000D+01  0.3132072115D+00
  0.5456000000D+00  0.7603767417D+00
 p    1  1.00
  0.1517000000D+00  0.1000000000D+01
 d    1  1.00
  0.5500000000D+00  0.1000000000D+01
  
  4 0
 s    3  1.00
  0.1301000000D+02  0.3349872639D-01
  0.1962000000D+01  0.2348008012D+00
  0.4446000000D+00  0.8136829579D+00
 s    1  1.00
  0.1220000000D+00  0.1000000000D+01
 p    1  1.00
  0.7270000000D+00  0.1000000000D+01
  
 11 0
 s    3  1.00
  0.1301000000D+02  0.3349872639D-01
  0.1962000000D+01  0.2348008012D+00
  0.4446000000D+00  0.8136829579D+00
 s    1  1.00
  0.1220000000D+00  0.1000000000D+01
 p    1  1.00
  0.7270000000D+00  0.1000000000D+01
  
  5 0
 s    3  1.00
  0.1301000000D+02  0.3349872639D-01
  0.1962000000D+01  0.2348008012D+00
  0.4446000000D+00  0.8136829579D+00
 s    1  1.00
  0.1220000000D+00  0.1000000000D+01
 p    1  1.00
  0.7270000000D+00  0.1000000000D+01
  
 12 0
 s    3  1.00
  0.1301000000D+02  0.3349872639D-01
  0.1962000000D+01  0.2348008012D+00
  0.4446000000D+00  0.8136829579D+00
 s    1  1.00
  0.1220000000D+00  0.1000000000D+01
 p    1  1.00
  0.7270000000D+00  0.1000000000D+01
  
  6 0
 s    3  1.00
  0.1301000000D+02  0.3349872639D-01
  0.1962000000D+01  0.2348008012D+00
  0.4446000000D+00  0.8136829579D+00
 s    1  1.00
  0.1220000000D+00  0.1000000000D+01
 p    1  1.00
  0.7270000000D+00  0.1000000000D+01
  
 13 0
 s    3  1.00
  0.1301000000D+02  0.3349872639D-01
  0.1962000000D+01  0.2348008012D+00
  0.4446000000D+00  0.8136829579D+00
 s    1  1.00
  0.1220000000D+00  0.1000000000D+01
 p    1  1.00
  0.7270000000D+00  0.1000000000D+01
  
  7 0
 s    3  1.00
  0.1301000000D+02  0.3349872639D-01
  0.1962000000D+01  0.2348008012D+00
  0.4446000000D+00  0.8136829579D+00
 s    1  1.00
  0.1220000000D+00  0.1000000000D+01
 p    1  1.00
  0.7270000000D+00  0.1000000000D+01
  
 14 0
 s    3  1.00
  0.1301000000D+02  0.3349872639D-01
  0.1962000000D+01  0.2348008012D+00
  0.4446000000D+00  0.8136829579D+00
 s    1  1.00
  0.1220000000D+00  0.1000000000D+01
 p    1  1.00
  0.7270000000D+00  0.1000000000D+01
 
 
[MO]
 Sym=      1.2
 Ene=     -15.6924
 Spin= Alpha
 Occup=    2.000000
1 0.70767740779247
2 0.000126412337217
3 -0.003496869784854
4 0.000579127606215
5 -0.000335989983337
6 0.000155225955611
7 -0.001113629080746
8 0.000610684141521
9 -0.000322240659969
10 0.000020807127086
11 -0.000050530634332
12 0.000029723507246
13 0.000097338279314
14 -0.000331282035982
15 0.000144409856308
16 -0.70767740779247
17 -0.000126412337217
18 0.003496869784854
19 0.000579127606215
20 -0.000335989983337
21 0.000155225955611
22 -0.001113629080746
23 0.000610684141521
24 -0.000322240659969
25 -0.000020807127086
26 0.000050530634332
27 -0.000029723507246
28 -0.000097338279314
29 0.000331282035982
30 -0.000144409856308
31 -0.000093756939793
32 -0.000168826816832
33 0.000624776978450
34 0.000054560118986
35 -0.000020458409022
36 -0.000006795301954
37 -0.000014027877046
38 0.000103039262691
39 0.000272114105217
40 -0.000049505799442
41 -0.000027447928180
42 0.000076953727622
43 0.000017106928508
44 0.000052082591649
45 -0.000025348177210
46 0.000093756939793
47 0.000168826816832
48 -0.000624776978450
49 0.000054560118986
50 -0.000020458409022
51 -0.000006795301954
52 -0.000014027877046
53 0.000103039262691
54 0.000272114105217
55 0.000049505799442
56 0.000027447928180
57 -0.000076953727622
58 -0.000017106928508
59 -0.000052082591649
60 0.000025348177210
61 -0.000099567395120
62 -0.000147846805451
63 0.000828104603421
64 -0.000028291940052
65 0.000005392434726
66 0.000013561839756
67 -0.001125754161427
68 0.000746865061508
69 -0.000071897698655
70 0.000081772935175
71 0.000008633032226
72 -0.000090405967402
73 -0.000100372749722
74 0.000075665283602
75 -0.000025618134016
76 0.000099567395120
77 0.000147846805451
78 -0.000828104603421
79 -0.000028291940052
80 0.000005392434726
81 0.000013561839756
82 -0.001125754161427
83 0.000746865061508
84 -0.000071897698655
85 -0.000081772935175
86 -0.000008633032226
87 0.000090405967402
88 0.000100372749722
89 -0.000075665283602
90 0.000025618134016
91 -0.000141208381441
92 0.000036683273208
93 0.000034917186966
94 -0.000012483115302
95 -0.000054507676130
96 0.000141208381441
97 -0.000036683273208
98 0.000034917186966
99 -0.000012483115302
100 -0.000054507676130
101 -0.000095910578335
102 0.000066583753568
103 0.000040005303782
104 -0.000027517347105
105 -0.000010201031501
106 0.000095910578335
107 -0.000066583753568
108 0.000040005303782
109 -0.000027517347105
110 -0.000010201031501
111 0.000069127881251
112 -0.000118871172220
113 0.000001513616667
114 0.000019754665875
115 -0.000006178119100
116 -0.000069127881251
117 0.000118871172220
118 0.000001513616667
119 0.000019754665875
120 -0.000006178119100
121 -0.000085400011188
122 0.000059787041296
123 0.000096934287784
124 -0.000104698901186
125 0.000032139107996
126 0.000085400011188
127 -0.000059787041296
128 0.000096934287784
129 -0.000104698901186
130 0.000032139107996
 Sym=      1.1
 Ene=     -15.6924
 Spin= Alpha
 Occup=    2.000000
1 0.70758018709909
2 -0.000058707372915
3 -0.003039440053105
4 0.000550955248998
5 -0.000296625376316
6 0.000115320249447
7 -0.000895959719822
8 0.000436980149240
9 -0.000168844991573
10 0.000034471693641
11 -0.000061853426623
12 0.000027381732982
13 0.000073768350710
14 -0.000309948607722
15 0.000110285605491
16 0.70758018709909
17 -0.000058707372915
18 -0.003039440053105
19 -0.000550955248998
20 0.000296625376316
21 -0.000115320249447
22 0.000895959719822
23 -0.000436980149240
24 0.000168844991573
25 0.000034471693641
26 -0.000061853426623
27 0.000027381732982
28 0.000073768350710
29 -0.000309948607722
30 0.000110285605491
31 -0.000027614229108
32 -0.000066463211277
33 -0.000192194271873
34 0.000027745013602
35 -0.000044118388386
36 -0.000036061958081
37 -0.000199741688268
38 0.000236406369459
39 0.000189620356216
40 0.000000105302288
41 0.000003271355773
42 -0.000003376658060
43 -0.000005224614844
44 0.000012675462688
45 0.000052635752241
46 -0.000027614229108
47 -0.000066463211277
48 -0.000192194271873
49 -0.000027745013602
50 0.000044118388386
51 0.000036061958081
52 0.000199741688268
53 -0.000236406369459
54 -0.000189620356216
55 0.000000105302288
56 0.000003271355773
57 -0.000003376658060
58 -0.000005224614844
59 0.000012675462688
60 0.000052635752241
61 -0.000163277478610
62 -0.000291797714487
63 0.000852257993486
64 -0.000088732057500
65 0.000100219942956
66 -0.000029406899946
67 -0.001007242195975
68 0.000415491540642
69 0.000015209020383
70 0.000096565851134
71 -0.000026221178018
72 -0.000070344673116
73 -0.000066160216111
74 -0.000012885402494
75 -0.000031407274268
76 -0.000163277478610
77 -0.000291797714487
78 0.000852257993486
79 0.000088732057500
80 -0.000100219942956
81 0.000029406899946
82 0.001007242195975
83 -0.000415491540642
84 -0.000015209020383
85 0.000096565851134
86 -0.000026221178018
87 -0.000070344673116
88 -0.000066160216111
89 -0.000012885402494
90 -0.000031407274268
91 -0.000006182333190
92 0.000062003062281
93 0.000030359322294
94 -0.000057885093443
95 -0.000004664106412
96 -0.000006182333190
97 0.000062003062281
98 -0.000030359322294
99 0.000057885093443
100 0.000004664106412
101 -0.000013417538454
102 -0.000013161920969
103 0.000038785354272
104 -0.000035111387937
105 -0.000045503562318
106 -0.000013417538454
107 -0.000013161920969
108 -0.000038785354272
109 0.000035111387937
110 0.000045503562318
111 0.000005573188378
112 0.000504624806118
113 -0.000063995139206
114 0.000026755683967
115 0.000021817632979
116 0.000005573188378
117 0.000504624806118
118 0.000063995139206
119 -0.000026755683967
120 -0.000021817632979
121 -0.000125290163010
122 0.000121876815279
123 0.000029870014233
124 -0.000032968333729
125 -0.000025552834694
126 -0.000125290163010
127 0.000121876815279
128 -0.000029870014233
129 0.000032968333729
130 0.000025552834694
 Sym=      2.1
 Ene=     -11.3233
 Spin= Alpha
 Occup=    2.000000
1 -0.000203055989880
2 -0.000306174886942
3 0.001474320737183
4 0.000092860623604
5 -0.000019977663575
6 0.000002736113976
7 0.000666480849312
8 -0.000511863316502
9 0.000131875980089
10 -0.000012206460989
11 0.000020121545471
12 -0.000007915084482
13 -0.000042907620015
14 -0.000003096740967
15 -0.000036858326711
16 -0.000203055989880
17 -0.000306174886942
18 0.001474320737183
19 -0.000092860623604
20 0.000019977663575
21 -0.000002736113976
22 -0.000666480849312
23 0.000511863316502
24 -0.000131875980089
25 -0.000012206460989
26 0.000020121545471
27 -0.000007915084482
28 -0.000042907620015
29 -0.000003096740967
30 -0.000036858326711
31 0.002322914810811
32 -0.000262281183868
33 0.002370872301922
34 0.000019598296467
35 0.000059189962323
36 0.000014875467898
37 -0.000644766580197
38 0.000351308298878
39 0.000950386540294
40 0.000031748910282
41 -0.000045625715079
42 0.000013876804797
43 -0.000044267523865
44 0.000015971726736
45 -0.000157053264284
46 0.002322914810811
47 -0.000262281183868
48 0.002370872301922
49 -0.000019598296467
50 -0.000059189962323
51 -0.000014875467898
52 0.000644766580197
53 -0.000351308298878
54 -0.000950386540294
55 0.000031748910282
56 -0.000045625715079
57 0.000013876804797
58 -0.000044267523865
59 0.000015971726736
60 -0.000157053264284
61 0.70868279731569
62 0.002978668227751
63 -0.006469967218987
64 0.000001235259402
65 0.000012082053978
66 0.000155740829869
67 0.000885394114782
68 0.000544609137285
69 0.001119659210265
70 -0.000021763967474
71 0.000059605104860
72 -0.000037841137386
73 0.000404886508602
74 -0.000141623965412
75 0.000216876397884
76 0.70868279731569
77 0.002978668227751
78 -0.006469967218987
79 -0.000001235259402
80 -0.000012082053978
81 -0.000155740829869
82 -0.000885394114782
83 -0.000544609137285
84 -0.001119659210265
85 -0.000021763967474
86 0.000059605104860
87 -0.000037841137386
88 0.000404886508602
89 -0.000141623965412
90 0.000216876397884
91 -0.000138713895331
92 0.000223622607917
93 0.000021846579691
94 0.000060329216858
95 0.000039742551853
96 -0.000138713895331
97 0.000223622607917
98 -0.000021846579691
99 -0.000060329216858
100 -0.000039742551853
101 -0.000135012161611
102 -0.000161243138627
103 0.000009204557062
104 0.000062119294516
105 0.000028358590722
106 -0.000135012161611
107 -0.000161243138627
108 -0.000009204557062
109 -0.000062119294516
110 -0.000028358590722
111 -0.000122070285753
112 0.000117352629661
113 0.000015288233756
114 0.000036502992908
115 -0.000014357052214
116 -0.000122070285753
117 0.000117352629661
118 -0.000015288233756
119 -0.000036502992908
120 0.000014357052214
121 -0.000138975281073
122 0.000837660564983
123 0.000144127357435
124 0.000177791171711
125 0.000097009533158
126 -0.000138975281073
127 0.000837660564983
128 -0.000144127357435
129 -0.000177791171711
130 -0.000097009533158
 Sym=      2.2
 Ene=     -11.3227
 Spin= Alpha
 Occup=    2.000000
1 -0.000121915831960
2 -0.000147308738913
3 0.001226723963759
4 0.000145491818783
5 -0.000064876703728
6 0.000000392225859
7 0.000563410231550
8 -0.000343707343707
9 0.000116475508834
10 0.000026220294772
11 0.000018586527527
12 -0.000044806822299
13 -0.000033199606952
14 0.000014590009097
15 0.000020992930330
16 0.000121915831960
17 0.000147308738913
18 -0.001226723963759
19 0.000145491818783
20 -0.000064876703728
21 0.000000392225859
22 0.000563410231550
23 -0.000343707343707
24 0.000116475508834
25 -0.000026220294772
26 -0.000018586527527
27 0.000044806822299
28 0.000033199606952
29 -0.000014590009097
30 -0.000020992930330
31 0.002627587829381
32 0.000039465666514
33 0.001709620753573
34 -0.000006895364312
35 0.000038755955112
36 0.000150210417427
37 -0.000330327597821
38 0.000538672246820
39 0.000539476246004
40 0.000110863006309
41 -0.000046933643765
42 -0.000063929362544
43 0.000002814011495
44 0.000064645525621
45 -0.000034353495607
46 -0.002627587829381
47 -0.000039465666514
48 -0.001709620753573
49 -0.000006895364312
50 0.000038755955112
51 0.000150210417427
52 -0.000330327597821
53 0.000538672246820
54 0.000539476246004
55 -0.000110863006309
56 0.000046933643765
57 0.000063929362544
58 -0.000002814011495
59 -0.000064645525621
60 0.000034353495607
61 0.70890166020096
62 0.003205286884174
63 -0.010511594733149
64 0.000129538216727
65 0.000081679160478
66 0.000016314383326
67 0.000458444572383
68 0.001267938135332
69 -0.001219869172039
70 -0.000213912470184
71 0.000157260380978
72 0.000056652089206
73 0.000409740111166
74 -0.000098060034227
75 0.000051882746194
76 -0.70890166020096
77 -0.003205286884174
78 0.010511594733149
79 0.000129538216727
80 0.000081679160478
81 0.000016314383326
82 0.000458444572383
83 0.001267938135332
84 -0.001219869172039
85 0.000213912470184
86 -0.000157260380978
87 -0.000056652089206
88 -0.000409740111166
89 0.000098060034227
90 -0.000051882746194
91 -0.000093403602592
92 -0.000217568633671
93 0.000018119564093
94 0.000005308079519
95 0.000014869322438
96 0.000093403602592
97 0.000217568633671
98 0.000018119564093
99 0.000005308079519
100 0.000014869322438
101 -0.000056080300227
102 0.000197648993675
103 -0.000004757360254
104 0.000041147400842
105 0.000113949793159
106 0.000056080300227
107 -0.000197648993675
108 -0.000004757360254
109 0.000041147400842
110 0.000113949793159
111 -0.000069610050396
112 0.000162337745361
113 -0.000004525474320
114 0.000008280307483
115 0.000061735453481
116 0.000069610050396
117 -0.000162337745361
118 -0.000004525474320
119 0.000008280307483
120 0.000061735453481
121 0.000141406886263
122 0.000747072730151
123 0.000199767529161
124 0.000264750626812
125 -0.000012165009768
126 -0.000141406886263
127 -0.000747072730151
128 0.000199767529161
129 0.000264750626812
130 -0.000012165009768
 Sym=      3.1
 Ene=     -11.2387
 Spin= Alpha
 Occup=    2.000000
1 -0.000030844159244
2 -0.000072940285745
3 0.000010711333553
4 -0.000047667130077
5 0.000046581424757
6 0.000006907835133
7 0.000044512158263
8 -0.000124228072666
9 -0.000109439273096
10 -0.000017725188812
11 0.000012235052932
12 0.000005490135880
13 -0.000033286275235
14 -0.000033940295084
15 0.000032246184826
16 -0.000030844159244
17 -0.000072940285745