[Molden Format]
[Molpro variables]
_NUMVAR=  811.0000000000000    
_AVOGAD= 0.6022136736000000E+24
_BOLTZ= 0.1380658000000000E-22
_CLIGHT=  29979245800.00000    
_EV2006= 0.3674930886769165E-01
_EV= 0.3674932534394180E-01
_ENULL= 0.8854187817000000E-11
_KJOULE= 0.3808798324128737E-03
_KJOULE/MOL= 0.3808798324128737E-03
_CM= 0.4556335267302901E-05
_CM-1= 0.4556335267302901E-05
_DEB2SI= 0.3335641000000000E-29
_AMU2AU=  1822.888390000000    
_KCAL= 0.1593601117815568E-02
_KCAL/MOL= 0.1593601117815568E-02
_KELVIN2006= 0.3166828861084835E-05
_KELVIN= 0.3166814820820034E-05
_JOULE= 0.4359748200000000E-17
_HERTZ2006= 0.1519829850815779E-15
_HERTZ= 0.1519829846011223E-15
_HZ2006= 0.1519829850815779E-15
_HZ= 0.1519829846011223E-15
_JPCAL=  4.184000000000000    
_PLANCK= 0.6626075540000000E-33
_TOA2006= 0.5291772490000000    
_TOA= 0.5291772090000000    
_TOANG2006= 0.5291772490000000    
_TOANG= 0.5291772090000000    
_TORAD= 0.1745329251994330E-01
_TOCM=  219474.6306700000    
_TODEBYE=  2.541580000000000    
_TOEV2006=  27.21139610000000    
_TOE= 0.4803242000000000E-09
_TOEV=  27.21138390000000    
_TOHERTZ2006=  6579683899900000.    
_TOHERTZ=  6579683920700000.    
_TOHZ2006=  6579683899900000.    
_TOHZ=  6579683920700000.    
_TOK2006=  315773.3000000000    
_TOK=  315774.7000000000    
_TOKCAL=  627.5096000000000    
_TOKELVIN2006=  315773.3000000000    
_TOKELVIN=  315774.7000000000    
_TOKJ=  2625.500000000000    
_TOKJOULE=  2625.500000000000    
_TOKG= 0.1660565586000000E-26
_ANG2006=  1.889725988578923    
_ANG=  1.889726131421507    
_ANGSTROM2006=  1.889725988578923    
_ANGSTROM=  1.889726131421507    
_RPAREF=  0.000000000000000    
_RPADISS=  0.000000000000000    
_IGNORE_UNDEF=  2.000000000000000    
_STRICTCHECK=  0.000000000000000    
_SEW_ONEEL=  0.000000000000000    
_CPPDONE=FALSE
_DKROLL_DONE=  0.000000000000000    
_FOCKDONE=TRUE
_GRADONE=FALSE
_HESSDONE=FALSE
_INTDONE=TRUE
_SCFDONE=TRUE
_MODUL_BLOCK=FALSE
_MODUL_CUDA=FALSE
_MODUL_SLATER=FALSE
_MODUL_MRCC=FALSE
_MODUL_NBO6=FALSE
_MODUL_NECI=TRUE
_MODUL_AIMS=TRUE
_MRCC_EXEC=
_FITC_AO_SAVED=FALSE
_FITC_MO_SAVED=FALSE
_SHARED_FS=TRUE
_LSTYP=SEWARD
_INTYP=INTS
_GEOMTYP=ZMAT
_GRADTYP=ALASKA
_DIRECT=FALSE
_DKHO= -1.000000000000000    
_SYNCM=  0.000000000000000    
_BASIS=USERDEF
_ZORIENT=  1.000000000000000    
_NELEC=  42.00000000000000    
!SPIN=  0.000000000000000    
_QSDSTEP=  0.000000000000000    
_QSDIRC=  0.000000000000000    
_PROGRAM=MATROP
_CPUSTEP= 0.6799999999999997    
_SYSSTEP=  0.000000000000000    
_WALLSTEP= 0.1900000000000000    
!DFSCF=  0.000000000000000    
!SCSGRD=  0.000000000000000    
_BASINP=  610.0000000000000    
_CPUTOT=  55.95000000000000    
_DFTEXFAC=  1.000000000000000    
_DMX=  0.000000000000000    
_DMY=  0.000000000000000    
_DMZ=  0.000000000000000    
_DMX_SCF=  0.000000000000000    
_DMY_SCF=  0.000000000000000    
_DMZ_SCF=-0.8718533514593072    
_EHOMO=-0.3439228265685456    
_ELUMO= 0.1154928063200286    
_ENUC=  205.5266160318501    
_EPS1= -15.58871963630626    
_EPS2=-0.5099741184866259    
_EPS3= -11.25730657771667    
_EPS4=-0.2911500052285479    
_GRADEXFAC=  9999.000000000000    
_GRADMETHOD=TRUE
_NMRMETHOD=  0.000000000000000    
!GRID_FREEZE= -1.000000000000000    
_ITERATIONS=  0.000000000000000    
_LASTNELEC=  10.00000000000000    
_LASTSPIN=  2.000000000000000    
_LASTSYM=  1.000000000000000    
_MPP_PROG=  0.000000000000000    
_NPROC_MPP=  1.000000000000000    
_NPROC_MPPX=  1.000000000000000    
_NPROC_SMP=  16.00000000000000    
_NUMSTEP=  0.000000000000000    
_ORBITAL=  2141.200000000000    
_PI=  3.141592653589793    
_SEIG_MIN= 0.8148194445626768E-03
_SEWPROP=TRUE
_STATUS=  0.000000000000000    
_SYSTOT=  3.320000000000000    
_VERSION=  2012001.000000000    
_WALLTOT=  51.68000000000000    
_DATE=24-Jan-19
_LASTORB=MCSCF
_MACHINE=Linux-4.9.0-8-amd64/nympha18.meta.zcu.cz(x86_64) (16 PROC) 64 bit serial version
_OUTPUT=/auto/brno2/home/masiz4am/git/UKRmol-in/tests/suite/C2v_target_CAS1/molpro.xml
_PGROUP=C2v
_TIME=16:31:33
_LIBMOL=/afs/ics.muni.cz/software/molpro-2012.1/molprop_2012_1_Linux_x86_64_i8/lib/
!VIBCNT=  0.000000000000000    
!RGHFCNT=  0.000000000000000    
!SURFREC=  0.000000000000000    
!POLYREC=  0.000000000000000    
!DIPREC=  0.000000000000000    
!VSCFREC=  0.000000000000000    
!VCIREC=  0.000000000000000    
!PVCIREC=  0.000000000000000    
!VMP2REC=  0.000000000000000    
!VMCSCFREC=  0.000000000000000    
!VMRCIREC=  0.000000000000000    
!VIBINFO=  0.000000000000000    
!GAREC=  0.000000000000000    
!SCFORB=  21002.00000000000    
!MCORB=  21412.00000000000    
!NEWMOL= -1.000000000000000    
!NEWSYM= -1.000000000000000    
_SLFILES=slscratch
_NGSSTO=  9.000000000000000    
_SIN=SIN
_COS=COS
_TAN=TAN
_ACOS=ACOS
_ASIN=ASIN
_ATAN=ATAN
_COSH=COSH
_SINH=SINH
_TANH=TANH
_ABS=ABS
_MOD=MOD
_ERF=ERF
_REFC=REFC
_ERFC=ERFC
_HYPOT=HYPOT
_J0=J0
_J1=J1
_JN=JN
_GAMMA=GAMMA
_LGAMMA=LGAMMA
_Y0=Y0
_Y1=Y1
_YN=YN
_EXP=EXP
_LOG=LOG
_LOG10=LOG10
_SQRT=SQRT
_INT=INT
_NINT=NINT
_MAX=MAX
_MIN=MIN
_COSMO=  0.000000000000000    
_COSMOIT=  0.000000000000000    
_COSMOES=  0.000000000000000    
_COSMOEDS=  0.000000000000000    
_COSMOEC=  0.000000000000000    
_COSMOEDCORR=  0.000000000000000    
_FEPSI=  1.000000000000000    
_SL_IsMM=  0.000000000000000    
_SL_NSYM=  4.000000000000000    
_SL_System_BitSw=  0.000000000000000    
_SL_Unique_atoms=  0.000000000000000    
_SL_GRAD=  0.000000000000000    
_SL_MAXUPD_Hess=  5.000000000000000    
_SL_N_PRINT_COD=  5.000000000000000    
_SL_PRINT_CODES=  0.000000000000000    
_SL_BasType=  0.000000000000000    
_SL_Energy_Pred=  0.000000000000000    
_SL_New_Coords=  0.000000000000000    
_SL_Total_Nuclea=  0.000000000000000    
_SL_Highest_Mltp=  0.000000000000000    
_SL_Ref_Geom=  0.000000000000000    
_SL_Symmetry_ope=  1.000000000000000    
_SL_agrad=  0.000000000000000    
_SL_GrdMax=  0.000000000000000    
_SL_GrdNorm=  0.000000000000000    
_SL_GrdRMS=  0.000000000000000    
!LATTICE= -1.000000000000000    
!NEWLATTICE=  0.000000000000000    
!LATGRAD_VAR=FALSE
!SEW_LATTICE=  1.000000000000000    
!LOCAL=  0.000000000000000    
!SAVEDOM= -1.000000000000000    
!RESTDOM= -1.000000000000000    
!SAVEDOM_HF= -1.000000000000000    
!RESTDOM_HF= -1.000000000000000    
!HESSREC=  0.000000000000000    
!FREQREC=  0.000000000000000    
!NMODREC=  0.000000000000000    
!GTASKS=  0.000000000000000    
!HTASKS=  0.000000000000000    
!THRCHG= 0.1000000000000000    
!DEBUG= -1.000000000000000    
!CFIT_CPHF=  0.000000000000000    
!RDOMAUX_CPHF=  3.000000000000000    
!THRAO_CPHF= 0.1000000000000000E-09
!THRMO_CPHF= 0.1000000000000000E-08
!THROV_CPHF= 0.1000000000000000E-11
!THRSW_CPHF= 0.1000000000000000E-09
!THRPROD_CPHF= 0.1000000000000000E-08
!THRAOPR_CPHF= 0.1000000000000000E-11
!CFIT_SCFGRD=  0.000000000000000    
!RDOMAUX_SCFGRD=  5.000000000000000    
!THRAO_SCFGRD= 0.1000000000000000E-09
!THRMO_SCFGRD= 0.1000000000000000E-08
!THROV_SCFGRD= 0.1000000000000000E-11
!THRSW_SCFGRD= 0.1000000000000000E-09
!THRPROD_SCFGRD= 0.1000000000000000E-08
!THRAOPR_SCFGRD= 0.1000000000000000E-11
!LOCFIT_SCF=  0.000000000000000    
!LOCFIT_MP2= -1.000000000000000    
_RIDOM=  0.000000000000000    
!CC2_METHOD=  0.000000000000000    
_BASIS2006=FALSE
_SVDDEL= -1.000000000000000    
_SVDDELA= -1.000000000000000    
_SVDDELP= -1.000000000000000    
_SVDDELF= -1.000000000000000    
_SVDDELS= -1.000000000000000    
_SVDDEL_ABS= -1.000000000000000    
_SVDDELA_ABS= -1.000000000000000    
_SVDDELP_ABS= -1.000000000000000    
_SVDDELF_ABS= -1.000000000000000    
_SVDDELS_ABS= -1.000000000000000    
_MAXBASIS=  0.000000000000000    
!OPT_CONICAL=  0.000000000000000    
!CLEARSP_JGRID=  0.000000000000000    
_4EXT_NDISKS=  1.000000000000000    
!ZMP=  0.000000000000000    
_MAXIT_ZMP=  500.0000000000000    
_MAXDIS_ZMP=  100.0000000000000    
_ACCU_ZMP=  14.00000000000000    
_SHIFTA_ZMP= -100.0000000000000    
!EMBEDFLAG=  1.000000000000000    
!EMBED=FALSE
!EMBED_F12=FALSE
!EMBEDNUC=  0.000000000000000    
_EMBEDENERGY=  0.000000000000000    
_KSPACETIME=  0.000000000000000    
_RSPACETIME=  0.000000000000000    
!EMBED_DFC=FALSE
!NUM_VOIDS=  0.000000000000000    
_IBODY=  0.000000000000000    
_EMBE_TOTAL=  0.000000000000000    
_EMBE_HF=  0.000000000000000    
_EMBE_CORR=  0.000000000000000    
!EDFT=  0.000000000000000    
_IFASTLATGRAD=  0.000000000000000    
_SINDEX=  0.000000000000000    
M_NAME=CASSCF(10,8)
M_CLOSED=  10.00000000000000    
M_OCC=  11.00000000000000    
GX1=  0.000000000000000    
GY1=  0.000000000000000    
GZ1=  2.696450217000000    
GX2=  0.000000000000000    
GY2= -2.157500324000000    
GZ2=  1.366649938000000    
GX3=  0.000000000000000    
GY3= -2.266726495000000    
GZ3= -1.275187193000000    
GX4=  0.000000000000000    
GY4=  0.000000000000000    
GZ4= -2.628609049000000    
GX5=  0.000000000000000    
GY5= -3.891324050000000    
GZ5=  2.474029451000000    
GX6=  0.000000000000000    
GY6= -4.081997416000000    
GZ6= -2.232900397000000    
GX7=  0.000000000000000    
GY7=  0.000000000000000    
GZ7= -4.682552381000000    
GX8=  0.000000000000000    
GY8=  2.266726495000000    
GZ8= -1.275187193000000    
GX9=  0.000000000000000    
GY9=  2.157500324000000    
GZ9=  1.366649938000000    
GX10=  0.000000000000000    
GY10=  4.081997416000000    
GZ10= -2.232900397000000    
GX11=  0.000000000000000    
GY11=  3.891324050000000    
GZ11=  2.474029451000000    
_TRDMX=  0.000000000000000    
_TRDMY=  0.000000000000000    
_TRDMZ=-0.1137856949016406    
[Atoms] Angs
N     1    7         0.0000000000        0.0000000000        1.4269000000
C     2    6         0.0000000000       -1.1416999999        0.7231999999
C     3    6         0.0000000000       -1.1995000002       -0.6747999997
C     4    6         0.0000000000        0.0000000000       -1.3910000001
H     5    1         0.0000000000       -2.0592000001        1.3091999999
H     6    1         0.0000000000       -2.1600999997       -1.1816000001
H     7    1         0.0000000000        0.0000000000       -2.4779000000
C     8    6         0.0000000000        1.1995000002       -0.6747999997
C     9    6         0.0000000000        1.1416999999        0.7231999999
H    10    1         0.0000000000        2.1600999997       -1.1816000001
H    11    1         0.0000000000        2.0592000001        1.3091999999
[GTO]
  1 0
 s    8  1.00
  0.9046000000D+04  0.6996174134D-03
  0.1357000000D+04  0.5386054630D-02
  0.3093000000D+03  0.2739102119D-01
  0.8773000000D+02  0.1031505920D+00
  0.2856000000D+02  0.2785706633D+00
  0.1021000000D+02  0.4482948495D+00
  0.3838000000D+01  0.2780859284D+00
  0.7466000000D+00  0.1543156123D-01
 s    8  1.00
  0.9046000000D+04 -0.3049900960D-03
  0.1357000000D+04 -0.2408026379D-02
  0.3093000000D+03 -0.1194444873D-01
  0.8773000000D+02 -0.4892599291D-01
  0.2856000000D+02 -0.1344727247D+00
  0.1021000000D+02 -0.3151125777D+00
  0.3838000000D+01 -0.2428578325D+00
  0.7466000000D+00  0.1094382207D+01
 s    1  1.00
  0.2248000000D+00  0.1000000000D+01
 p    3  1.00
  0.1355000000D+02  0.5890567677D-01
  0.2917000000D+01  0.3204611067D+00
  0.7973000000D+00  0.7530420618D+00
 p    1  1.00
  0.2185000000D+00  0.1000000000D+01
 d    1  1.00
  0.8170000000D+00  0.1000000000D+01
  
  2 0
 s    8  1.00
  0.6665000000D+04  0.6915839628D-03
  0.1000000000D+04  0.5325796153D-02
  0.2280000000D+03  0.2706072104D-01
  0.6471000000D+02  0.1016568461D+00
  0.2106000000D+02  0.2745748236D+00
  0.7495000000D+01  0.4482943189D+00
  0.2797000000D+01  0.2849026107D+00
  0.5215000000D+00  0.1519485921D-01
 s    8  1.00
  0.6665000000D+04 -0.2932696527D-03
  0.1000000000D+04 -0.2318035474D-02
  0.2280000000D+03 -0.1149978604D-01
  0.6471000000D+02 -0.4682672701D-01
  0.2106000000D+02 -0.1284661688D+00
  0.7495000000D+01 -0.3012662725D+00
  0.2797000000D+01 -0.2556307023D+00
  0.5215000000D+00  0.1093793361D+01
 s    1  1.00
  0.1596000000D+00  0.1000000000D+01
 p    3  1.00
  0.9439000000D+01  0.5697925159D-01
  0.2002000000D+01  0.3132072115D+00
  0.5456000000D+00  0.7603767417D+00
 p    1  1.00
  0.1517000000D+00  0.1000000000D+01
 d    1  1.00
  0.5500000000D+00  0.1000000000D+01
  
  9 0
 s    8  1.00
  0.6665000000D+04  0.6915839628D-03
  0.1000000000D+04  0.5325796153D-02
  0.2280000000D+03  0.2706072104D-01
  0.6471000000D+02  0.1016568461D+00
  0.2106000000D+02  0.2745748236D+00
  0.7495000000D+01  0.4482943189D+00
  0.2797000000D+01  0.2849026107D+00
  0.5215000000D+00  0.1519485921D-01
 s    8  1.00
  0.6665000000D+04 -0.2932696527D-03
  0.1000000000D+04 -0.2318035474D-02
  0.2280000000D+03 -0.1149978604D-01
  0.6471000000D+02 -0.4682672701D-01
  0.2106000000D+02 -0.1284661688D+00
  0.7495000000D+01 -0.3012662725D+00
  0.2797000000D+01 -0.2556307023D+00
  0.5215000000D+00  0.1093793361D+01
 s    1  1.00
  0.1596000000D+00  0.1000000000D+01
 p    3  1.00
  0.9439000000D+01  0.5697925159D-01
  0.2002000000D+01  0.3132072115D+00
  0.5456000000D+00  0.7603767417D+00
 p    1  1.00
  0.1517000000D+00  0.1000000000D+01
 d    1  1.00
  0.5500000000D+00  0.1000000000D+01
  
  3 0
 s    8  1.00
  0.6665000000D+04  0.6915839628D-03
  0.1000000000D+04  0.5325796153D-02
  0.2280000000D+03  0.2706072104D-01
  0.6471000000D+02  0.1016568461D+00
  0.2106000000D+02  0.2745748236D+00
  0.7495000000D+01  0.4482943189D+00
  0.2797000000D+01  0.2849026107D+00
  0.5215000000D+00  0.1519485921D-01
 s    8  1.00
  0.6665000000D+04 -0.2932696527D-03
  0.1000000000D+04 -0.2318035474D-02
  0.2280000000D+03 -0.1149978604D-01
  0.6471000000D+02 -0.4682672701D-01
  0.2106000000D+02 -0.1284661688D+00
  0.7495000000D+01 -0.3012662725D+00
  0.2797000000D+01 -0.2556307023D+00
  0.5215000000D+00  0.1093793361D+01
 s    1  1.00
  0.1596000000D+00  0.1000000000D+01
 p    3  1.00
  0.9439000000D+01  0.5697925159D-01
  0.2002000000D+01  0.3132072115D+00
  0.5456000000D+00  0.7603767417D+00
 p    1  1.00
  0.1517000000D+00  0.1000000000D+01
 d    1  1.00
  0.5500000000D+00  0.1000000000D+01
  
  8 0
 s    8  1.00
  0.6665000000D+04  0.6915839628D-03
  0.1000000000D+04  0.5325796153D-02
  0.2280000000D+03  0.2706072104D-01
  0.6471000000D+02  0.1016568461D+00
  0.2106000000D+02  0.2745748236D+00
  0.7495000000D+01  0.4482943189D+00
  0.2797000000D+01  0.2849026107D+00
  0.5215000000D+00  0.1519485921D-01
 s    8  1.00
  0.6665000000D+04 -0.2932696527D-03
  0.1000000000D+04 -0.2318035474D-02
  0.2280000000D+03 -0.1149978604D-01
  0.6471000000D+02 -0.4682672701D-01
  0.2106000000D+02 -0.1284661688D+00
  0.7495000000D+01 -0.3012662725D+00
  0.2797000000D+01 -0.2556307023D+00
  0.5215000000D+00  0.1093793361D+01
 s    1  1.00
  0.1596000000D+00  0.1000000000D+01
 p    3  1.00
  0.9439000000D+01  0.5697925159D-01
  0.2002000000D+01  0.3132072115D+00
  0.5456000000D+00  0.7603767417D+00
 p    1  1.00
  0.1517000000D+00  0.1000000000D+01
 d    1  1.00
  0.5500000000D+00  0.1000000000D+01
  
  4 0
 s    8  1.00
  0.6665000000D+04  0.6915839628D-03
  0.1000000000D+04  0.5325796153D-02
  0.2280000000D+03  0.2706072104D-01
  0.6471000000D+02  0.1016568461D+00
  0.2106000000D+02  0.2745748236D+00
  0.7495000000D+01  0.4482943189D+00
  0.2797000000D+01  0.2849026107D+00
  0.5215000000D+00  0.1519485921D-01
 s    8  1.00
  0.6665000000D+04 -0.2932696527D-03
  0.1000000000D+04 -0.2318035474D-02
  0.2280000000D+03 -0.1149978604D-01
  0.6471000000D+02 -0.4682672701D-01
  0.2106000000D+02 -0.1284661688D+00
  0.7495000000D+01 -0.3012662725D+00
  0.2797000000D+01 -0.2556307023D+00
  0.5215000000D+00  0.1093793361D+01
 s    1  1.00
  0.1596000000D+00  0.1000000000D+01
 p    3  1.00
  0.9439000000D+01  0.5697925159D-01
  0.2002000000D+01  0.3132072115D+00
  0.5456000000D+00  0.7603767417D+00
 p    1  1.00
  0.1517000000D+00  0.1000000000D+01
 d    1  1.00
  0.5500000000D+00  0.1000000000D+01
  
  5 0
 s    3  1.00
  0.1301000000D+02  0.3349872639D-01
  0.1962000000D+01  0.2348008012D+00
  0.4446000000D+00  0.8136829579D+00
 s    1  1.00
  0.1220000000D+00  0.1000000000D+01
 p    1  1.00
  0.7270000000D+00  0.1000000000D+01
  
 11 0
 s    3  1.00
  0.1301000000D+02  0.3349872639D-01
  0.1962000000D+01  0.2348008012D+00
  0.4446000000D+00  0.8136829579D+00
 s    1  1.00
  0.1220000000D+00  0.1000000000D+01
 p    1  1.00
  0.7270000000D+00  0.1000000000D+01
  
  6 0
 s    3  1.00
  0.1301000000D+02  0.3349872639D-01
  0.1962000000D+01  0.2348008012D+00
  0.4446000000D+00  0.8136829579D+00
 s    1  1.00
  0.1220000000D+00  0.1000000000D+01
 p    1  1.00
  0.7270000000D+00  0.1000000000D+01
  
 10 0
 s    3  1.00
  0.1301000000D+02  0.3349872639D-01
  0.1962000000D+01  0.2348008012D+00
  0.4446000000D+00  0.8136829579D+00
 s    1  1.00
  0.1220000000D+00  0.1000000000D+01
 p    1  1.00
  0.7270000000D+00  0.1000000000D+01
  
  7 0
 s    3  1.00
  0.1301000000D+02  0.3349872639D-01
  0.1962000000D+01  0.2348008012D+00
  0.4446000000D+00  0.8136829579D+00
 s    1  1.00
  0.1220000000D+00  0.1000000000D+01
 p    1  1.00
  0.7270000000D+00  0.1000000000D+01
 
 
[MO]
 Sym=      1.1
 Ene=     -15.5887
 Spin= Alpha
 Occup=    2.000000
1 1.00203595714977
2 0.003517895675802
3 -0.010871644403388
4 0.0
5 0.0
6 -0.001602256686598
7 0.0
8 0.0
9 0.003126280427665
10 -0.000115724440465
11 0.000263917303018
12 -0.000148192862554
13 0.0
14 0.0
15 0.0
16 0.000131804250405
17 0.000121752793110
18 0.004503298491189
19 0.0
20 0.000010706066008
21 -0.000004435133974
22 0.0
23 0.002941632360319
24 -0.000503736998307
25 0.000060461824235
26 -0.000124662839567
27 0.000064201015332
28 0.0
29 0.0
30 -0.000574017009238
31 0.000131804250405
32 0.000121752793110
33 0.004503298491189
34 0.0
35 -0.000010706066008
36 -0.000004435133974
37 0.0
38 -0.002941632360319
39 -0.000503736998307
40 0.000060461824235
41 -0.000124662839567
42 0.000064201015332
43 0.0
44 0.0
45 0.000574017009238
46 0.000128731100164
47 0.000208665872347
48 -0.003941419861717
49 0.0
50 -0.000016646829511
51 -0.000056653130980
52 0.0
53 -0.002935051312574
54 -0.000774882986513
55 0.000036337823988
56 -0.000019213403987
57 -0.000017124420001
58 0.0
59 0.0
60 -0.000228486286944
61 0.000128731100164
62 0.000208665872347
63 -0.003941419861717
64 0.0
65 0.000016646829511
66 -0.000056653130980
67 0.0
68 0.002935051312574
69 -0.000774882986513
70 0.000036337823988
71 -0.000019213403987
72 -0.000017124420001
73 0.0
74 0.0
75 0.000228486286944
76 -0.000210534121828
77 -0.000367567243182
78 0.005209157833982
79 0.0
80 0.0
81 -0.000046933899806
82 0.0
83 0.0
84 0.002383994450622
85 -0.000101380135510
86 -0.000049630614502
87 0.000151010750012
88 0.0
89 0.0
90 0.0
91 -0.000163016605139
92 0.000598526133872
93 0.0
94 -0.000235373455023
95 -0.000033674926713
96 -0.000163016605139
97 0.000598526133872
98 0.0
99 0.000235373455023
100 -0.000033674926713
101 -0.000094274204427
102 -0.000787380990854
103 0.0
104 0.000124415284224
105 -0.000013735904278
106 -0.000094274204427
107 -0.000787380990854
108 0.0
109 -0.000124415284224
110 -0.000013735904278
111 -0.000084602161906
112 0.000545510070877
113 0.0
114 0.0
115 -0.000097426366890
 Sym=      1.3
 Ene=     -11.2573
 Spin= Alpha
 Occup=    2.000000
1 0.0
2 0.0
3 0.0
4 0.0
5 -0.000215783146364
6 0.0
7 0.0
8 0.002754135575154
9 0.0
10 0.0
11 0.0
12 0.0
13 0.0
14 0.0
15 -0.000290753256609
16 0.70833753397732
17 0.003359968471622
18 -0.005816874599532
19 0.0
20 0.000488844096767
21 0.000234651548383
22 0.0
23 0.000267857515826
24 0.003496612702509
25 -0.000385027758116
26 0.000140991344854
27 0.000244036413263
28 0.0
29 0.0
30 0.000114121098987
31 -0.70833753397732
32 -0.003359968471622
33 0.005816874599532
34 0.0
35 0.000488844096767
36 -0.000234651548383
37 0.0
38 0.000267857515826
39 -0.003496612702509
40 0.000385027758116
41 -0.000140991344854
42 -0.000244036413263
43 0.0
44 0.0
45 0.000114121098987
46 0.023189559261973
47 -0.000095766595405
48 0.001940420121794
49 0.0
50 0.000073724011181
51 -0.000043852861645
52 0.0
53 -0.000858986813692
54 0.002989661336369
55 0.000225292017922
56 -0.000092239148472
57 -0.000133052869450
58 0.0
59 0.0
60 0.000010553613186
61 -0.023189559261973
62 0.000095766595405
63 -0.001940420121794
64 0.0
65 0.000073724011181
66 0.000043852861645
67 0.0
68 -0.000858986813692
69 -0.002989661336369
70 -0.000225292017922
71 0.000092239148472
72 0.000133052869450
73 0.0
74 0.0
75 0.000010553613186
76 0.0
77 0.0
78 0.0
79 0.0
80 -0.000035455297076
81 0.0
82 0.0
83 -0.002420922713799
84 0.0
85 0.0
86 0.0
87 0.0
88 0.0
89 0.0
90 -0.000110711053364
91 -0.000323393378794
92 0.000165099934107
93 0.0
94 -0.000329581227403
95 -0.000008246863519
96 0.000323393378794
97 -0.000165099934107
98 0.0
99 -0.000329581227403
100 0.000008246863519
101 0.000002278128511
102 0.000228086675214
103 0.0
104 0.000109810598805
105 -0.000033809535535
106 -0.000002278128511
107 -0.000228086675214
108 0.0
109 0.000109810598805
110 0.000033809535535
111 0.0
112 0.0
113 0.0
114 0.000056464019053
115 0.0
 Sym=      2.1
 Ene=     -11.2573
 Spin= Alpha
 Occup=    2.000000
1 0.000237091688836
2 0.001113019296529
3 -0.005503989181927
4 0.0
5 0.0
6 0.000040421116637
7 0.0
8 0.0
9 0.002435204600730
10 0.000566670273882
11 -0.000467896286968
12 -0.000098773986913
13 0.0
14 0.0
15 0.0
16 0.70808902393835
17 0.002953496416985
18 -0.000443748361855
19 0.0
20 0.000550045327546
21 0.000278812960335
22 0.0
23 0.002652706499614
24 -0.000764234250022
25 -0.000680271942230
26 0.000444466872613
27 0.000235805069617
28 0.0
29 0.0
30 0.000150047753368
31 0.70808902393835
32 0.002953496416985
33 -0.000443748361855
34 0.0
35 -0.000550045327546
36 0.000278812960335
37 0.0
38 -0.002652706499614
39 -0.000764234250022
40 -0.000680271942230
41 0.000444466872613
42 0.000235805069617
43 0.0
44 0.0
45 -0.000150047753368
46 0.023076689515510
47 0.000224198972253
48 -0.004177825685252
49 0.0
50 0.000018425363666
51 -0.000058267936286
52 0.0
53 -0.003138247111933
54 -0.000548131117435
55 0.000366063633296
56 -0.000132547975795
57 -0.000233515657501
58 0.0
59 0.0
60 0.000011014538319
61 0.023076689515510
62 0.000224198972253
63 -0.004177825685252
64 0.0
65 -0.000018425363666
66 -0.000058267936286
67 0.0
68 0.003138247111933
69 -0.000548131117435
70 0.000366063633296
71 -0.000132547975795
72 -0.000233515657501
73 0.0
74 0.0
75 -0.000011014538319
76 0.000342305263320
77 -0.000357498182756
78 0.006363084609899
79 0.0
80 0.0
81 0.000035519503875
82 0.0
83 0.0
84 0.003159065794597
85 -0.000273208610724
86 0.000106629509161
87 0.000166579101563
88 0.0
89 0.0
90 0.0
91 -0.000121789047759
92 0.001504142920475
93 0.0
94 -0.000380945695793
95 0.000162452152527
96 -0.000121789047759
97 0.001504142920475
98 0.0
99 0.000380945695793
100 0.000162452152527
101 -0.000074687200163
102 -0.000700611760391
103 0.0
104 0.000148177942930
105 0.000080550741484
106 -0.000074687200163
107 -0.000700611760391
108 0.0
109 -0.000148177942930
110 0.000080550741484
111 -0.000054785843566
112 0.000804384267205
113 0.0
114 0.0
115 -0.000115668709666
 Sym=      3.1
 Ene=     -11.2409
 Spin= Alpha
 Occup=    2.000000
1 0.000086820986538
2 0.000119418886713
3 -0.001267842006387
4 0.0
5 0.0
6 -0.000020140261661
7 0.0
8 0.0
9 0.000643610804435
10 -0.000074604382423
11 0.000039467863581
12 0.000035136518843
13 0.0
14 0.0
15 0.0
16 -0.023289777213671
17 -0.000372156333676
18 0.003365197778139
19 0.0
20 0.000024001701897
21 0.000093165864913
22 0.0
23 0.000861923789978
24 -0.001577539565067
25 0.000154818239550
26 0.000022968372506
27 -0.000177786612056
28 0.0
29 0.0
30 0.000013957730593
31 -0.023289777213671
32 -0.000372156333676
33 0.003365197778139
34 0.0
35 -0.000024001701897
36 0.000093165864913
37 0.0
38 -0.000861923789978
39 -0.001577539565067
40 0.000154818239550
41 0.000022968372506
42 -0.000177786612056
43 0.0
44 0.0
45 -0.000013957730593
46 0.70647702903894
47 0.003306062892600
48 -0.008092811466264
49 0.0
50 0.000050612253526
51 0.000030882324271
52 0.0
53 -0.001642759164617
54 -0.001358163802261
55 -0.000396339680933
56 0.000302321705069
57 0.000094017975864
58 0.0
59 0.0
60 0.000100969904729
61 0.70647702903894
62 0.003306062892600
63 -0.008092811466264
64 0.0
65 -0.000050612253526
66 0.000030882324271
67 0.0
68 0.001642759164617
69 -0.001358163802261
70 -0.000396339680933
71 0.000302321705069
72 0.000094017975864
73 0.0
74 0.0
75 -0.000100969904729
76 0.071518271561325
77 -0.000166669314122
78 0.003741121431106
79 0.0
80 0.0
81 -0.000061226006362
82 0.0
83 0.0
84 0.002148701120489
85 0.000432858793892
86 -0.000220336053218
87 -0.000212522740674
88 0.0
89 0.0
90 0.0
91 0.000061779638548
92 0.000422837481119
93 0.0
94 0.000067243773556
95 -0.000006279543627
96 0.000061779638548
97 0.000422837481119
98 0.0
99 -0.000067243773556
100 -0.000006279543627
101 -0.000404491185850
102 0.000392693311850
103 0.0
104 -0.000328337083740
105 -0.000171876283558
106 -0.000404491185850
107 0.000392693311850
108 0.0
109 0.000328337083740
110 -0.000171876283558
111 0.000180895025137
112 0.000716704879900
113 0.0
114 0.0
115 0.000137247203195
 Sym=      2.3
 Ene=     -11.2408
 Spin= Alpha
 Occup=    2.000000
1 0.0
2 0.0
3 0.0
4 0.0
5 -0.000029964503315
6 0.0
7 0.0
8 0.000012266117446
9 0.0
10 0.0
11 0.0
12 0.0
13 0.0
14 0.0
15 0.000032688442572
16 -0.023560800935404
17 -0.000246957062073
18 0.001753922387310
19 0.0
20 0.000051087038543
21 0.000029111925424
22 0.0
23 0.000546331562272
24 -0.000743322957226
25 0.000269212963774
26 -0.000049625976666
27 -0.000219586987108
28 0.0
29 0.0
30 0.000038194958447
31 0.023560800935404
32 0.000246957062073
33 -0.001753922387310
34 0.0
35 0.000051087038543
36 -0.000029111925424
37 0.0
38 0.000546331562272
39 0.000743322957226
40 -0.000269212963774
41 0.000049625976666
42 0.000219586987108
43 0.0
44 0.0
45 0.000038194958447
46 0.70834816293124
47 0.003375750492293
48 -0.006967790052938
49 0.0
50 0.000024119692729
51 0.000057597744008
52 0.0
53 -0.001551917180890
54 -0.000243353198062
55 -0.000312926524453
56 0.000179976962947
57 0.000132949561506
58 0.0
59 0.0
60 0.000094341122314
61 -0.70834816293124
62 -0.003375750492293
63 0.006967790052938
64 0.0
65 0.000024119692729
66 -0.000057597744008
67 0.0
68 -0.001551917180890
69 0.000243353198062
70 0.000312926524453
71 -0.000179976962947
72 -0.000132949561506
73 0.0
74 0.0
75 0.000094341122314
76 0.0
77 0.0
78 0.0
79 0.0
80 0.000208559523130
81 0.0
82 0.0
83 -0.001683688525514
84 0.0
85 0.0
86 0.0
87 0.0
88 0.0
89 0.0
90 0.000213076374868
91 0.000082778996167
92 0.000212156738655
93 0.0
94 0.000083548673689
95 -0.000054862099867
96 -0.000082778996167
97 -0.000212156738655
98 0.0
99 0.000083548673689
100 0.000054862099867
101 -0.000306984199682
102 0.000464023007771
103 0.0
104 -0.000319116916102
105 -0.000184180258964
106 0.000306984199682
107 -0.000464023007771
108 0.0
109 -0.000319116916102
110 0.000184180258964
111 0.0
112 0.0
113 0.0
114 0.000047408660903
115 0.0
 Sym=      4.1
 Ene=     -11.2303
 Spin= Alpha
 Occup=    2.000000
1 -0.000012161657649
2 -0.000028948923199
3 0.000028574163681
4 0.0
5 0.0
6 0.000024964313405
7 0.0
8 0.0
9 0.000112353403564
10 0.000016616333929
11 0.000012005625738
12 -0.000028621959667
13 0.0
14 0.0
15 0.0
16 0.001196213173183
17 -0.000093089362267
18 0.000112217263578
19 0.0
20 -0.000006839621960
21 0.000023261078577
22 0.0
23 -0.000036090686055
24 -0.000232940905554
25 -0.000135820628162
26 0.000048619483244
27 0.000087201144918
28 0.0
29 0.0
30 -0.000068677158410
31 0.001196213173183
32 -0.000093089362267
33 0.000112217263578
34 0.0
35 0.000006839621960
36 0.000023261078577
37 0.0
38 0.000036090686055
39 -0.000232940905554
40 -0.000135820628162
41 0.000048619483244
42 0.000087201144918
43 0.0
44 0.0
45 0.000068677158410
46 -0.051161104480448
47 -0.000551336561154
48 0.002772061468194
49 0.0
50 -0.000085782676796
51 0.000028708666655
52 0.0
53 0.001546534091675
54 -0.000329367067556
55 0.000385033332355
56 -0.000311410077412
57 -0.000073623254943
58 0.0
59 0.0
60 0.000060222876772
61 -0.051161104480448
62 -0.000551336561154
63 0.002772061468194
64 0.0
65 0.000085782676796
66 0.000028708666655
67 0.0
68 -0.001546534091675
69 -0.000329367067556
70 0.000385033332355
71 -0.000311410077412
72 -0.000073623254943
73 0.0
74 0.0
75 -0.000060222876772
76 0.99967990497667
77 0.004736110805437
78 -0.009965592910915
79 0.0
80 0.0
81 0.000162170838500
82 0.0
83 0.0
84 -0.002098470190544
85 -0.000576986015528
86 0.000112502148718
87 0.000464483866811
88 0.0
89 0.0
90 0.0
91 -0.000056635830737
92 0.000105973629067
93 0.0
94 -0.000033295698004
95 0.000013485517832
96 -0.000056635830737
97 0.000105973629067
98 0.0
99 0.000033295698004
100 0.000013485517832
101 0.000178071553249
102 0.000316879236500
103 0.0
104 0.000138517774143
105 0.000103827481533
106 0.000178071553249
107 0.000316879236500
108 0.0
109 -0.000138517774143
110 0.000103827481533
111 -0.000530429083718
112 0.000678905583777
113 0.0
114 0.0
115 -0.000552930708229
 Sym=      5.1
 Ene=      -1.2597
 Spin= Alpha
 Occup=    2.000000
1 -0.015317251007688
2 0.32819850037931
3 0.32654724523237
4 0.0
5 0.0
6 -0.10569131413103
7 0.0
8 0.0
9 -0.051212167118492
10 -0.013585885066258
11 0.010808318776484
12 0.002777566289774
13 0.0
14 0.0
15 0.0
16 -0.012413552817326
17 0.18513285205863
18 0.047285629807884
19 0.0
20 0.10419612178588
21 0.024974333669606
22 0.0
23 -0.009220336454415
24 0.005134289260910
25 -0.011949113533172
26 0.014674287379461
27 -0.002725173846289
28 0.0
29 0.0
30 0.015674057629527
31 -0.012413552817326
32 0.18513285205863
33 0.047285629807884
34 0.0
35 -0.10419612178588
36 0.024974333669606
37 0.0
38 0.009220336454415
39 0.005134289260910
40 -0.011949113533172
41 0.014674287379461
42 -0.002725173846289
43 0.0
44 0.0
45 -0.015674057629527
46 -0.006517939849577
47 0.082025939083563
48 0.082547244763696
49 0.0
50 0.028096493259263
51 0.035369188745654
52 0.0
53 0.035700626523909
54 0.016243079020322
55 -0.006287277357597
56 -0.001435845591963
57 0.007723122949559
58 0.0
59 0.0
60 0.002529787381305
61 -0.006517939849577
62 0.082025939083563
63 0.082547244763696
64 0.0
65 -0.028096493259263
66 0.035369188745654
67 0.0
68 -0.035700626523909
69 0.016243079020322
70 -0.006287277357597