[Molden Format]
[Atoms] (AU)
O    1    8         0.000000000000       0.000000000000      -0.124013990239
H    2    1        -0.000000000000       1.431150000000       0.984096009761
H    3    1         0.000000000000      -1.431150000000       0.984096009761
[GTO]
  1 0
 s    8  1.00
    11720.0000000000         0.0007100000
     1759.0000000000         0.0054700000
      400.8000000000         0.0278370000
      113.7000000000         0.1048000000
       37.0300000000         0.2830620000
       13.2700000000         0.4487190000
        5.0250000000         0.2709520000
        1.0130000000         0.0154580000
 s    8  1.00
    11720.0000000000        -0.0001600000
     1759.0000000000        -0.0012630000
      400.8000000000        -0.0062670000
      113.7000000000        -0.0257160000
       37.0300000000        -0.0709240000
       13.2700000000        -0.1654110000
        5.0250000000        -0.1169550000
        1.0130000000         0.5573680000
 s    1  1.00
        0.3023000000         1.0000000000
 p    3  1.00
       17.7000000000         0.0430180000
        3.8540000000         0.2289130000
        1.0460000000         0.5087280000
 p    1  1.00
        0.2753000000         1.0000000000
 d    1  1.00
        1.1850000000         1.0000000000

  2 0
 s    3  1.00
       13.0100000000         0.0196850000
        1.9620000000         0.1379770000
        0.4446000000         0.4781480000
 s    1  1.00
        0.1220000000         1.0000000000
 p    1  1.00
        0.7270000000         1.0000000000

  3 0
 s    3  1.00
       13.0100000000         0.0196850000
        1.9620000000         0.1379770000
        0.4446000000         0.4781480000
 s    1  1.00
        0.1220000000         1.0000000000
 p    1  1.00
        0.7270000000         1.0000000000

[5D]
[9G]

[MO]
 Sym= A1
 Ene= -2.05505384578689565e+01
 Spin= Alpha
 Occup=  2.00000000000000000e+00
  1  1.00089863894053632e+00
  2  1.17222283917775170e-03
  3 -2.66861243852808397e-03
  4  0.00000000000000000e+00
  5  0.00000000000000000e+00
  6  1.76159814717173862e-03
  7  0.00000000000000000e+00
  8  0.00000000000000000e+00
  9 -4.85436022057411838e-04
 10  1.08473366474020797e-05
 11  0.00000000000000000e+00
 12  0.00000000000000000e+00
 13 -1.37311205101569965e-04
 14  0.00000000000000000e+00
 15 -2.38690028347233530e-04
 16  4.21394109232196921e-04
 17  0.00000000000000000e+00
 18  5.70171929678839080e-04
 19  4.81139503905680585e-04
 20 -2.38690028347233530e-04
 21  4.21394109232196921e-04
 22  0.00000000000000000e+00
 23 -5.70171929678839080e-04
 24  4.81139503905680585e-04
 Sym= A1
 Ene= -1.33641985957398024e+00
 Spin= Alpha
 Occup=  2.00000000000000000e+00
  1  8.19600077735785706e-03
  2 -4.42938903349714919e-01
  3 -3.76105333246627926e-01
  4  0.00000000000000000e+00
  5  0.00000000000000000e+00
  6 -7.87517657859027886e-02
  7  0.00000000000000000e+00
  8  0.00000000000000000e+00
  9  1.30026723671925037e-02
 10 -1.24320790931746971e-03
 11  0.00000000000000000e+00
 12  0.00000000000000000e+00
 13  3.00821983787871207e-03
 14  0.00000000000000000e+00
 15 -1.93374691245703750e-01
 16 -1.00942838719133288e-02
 17  0.00000000000000000e+00
 18  3.72881026768504265e-02
 19  2.04665364666393804e-02
 20 -1.93374691245703750e-01
 21 -1.00942838719133288e-02
 22  0.00000000000000000e+00
 23 -3.72881026768504265e-02
 24  2.04665364666393804e-02
 Sym= B2
 Ene= -6.98974926676141695e-01
 Spin= Alpha
 Occup=  2.00000000000000000e+00
  1  0.00000000000000000e+00
  2  0.00000000000000000e+00
  3  0.00000000000000000e+00
  4  0.00000000000000000e+00
  5  4.89912778958770390e-01
  6  0.00000000000000000e+00
  7  0.00000000000000000e+00
  8  2.22083137714490619e-01
  9  0.00000000000000000e+00
 10  0.00000000000000000e+00
 11  0.00000000000000000e+00
 12  2.68084266290269692e-02
 13  0.00000000000000000e+00
 14  0.00000000000000000e+00
 15  3.27860641036741451e-01
 16  8.98578903404165658e-02
 17  0.00000000000000000e+00
 18 -2.33132412427770677e-02
 19 -3.26375308758301425e-02
 20 -3.27860641036741451e-01
 21 -8.98578903404165658e-02
 22  0.00000000000000000e+00
 23 -2.33132412427770677e-02
 24  3.26375308758301425e-02
 Sym= A1
 Ene= -5.66491909871708721e-01
 Spin= Alpha
 Occup=  2.00000000000000000e+00
  1  2.16538510878640364e-03
  2 -1.50368453219385773e-01
  3 -3.49653373369067988e-01
  4  0.00000000000000000e+00
  5  0.00000000000000000e+00
  6  5.45422079333066745e-01
  7  0.00000000000000000e+00
  8  0.00000000000000000e+00
  9  3.65391869918361367e-01
 10  1.78662261989745094e-02
 11  0.00000000000000000e+00
 12  0.00000000000000000e+00
 13 -4.59292042313070442e-03
 14  0.00000000000000000e+00
 15  2.06395998118171220e-01
 16  4.04192427216426217e-02
 17  0.00000000000000000e+00
 18 -3.17379394737547851e-02
 19  7.50514451950238734e-03
 20  2.06395998118171220e-01
 21  4.04192427216426217e-02
 22  0.00000000000000000e+00
 23  3.17379394737547851e-02
 24  7.50514451950238734e-03
 Sym= B1
 Ene= -4.93104705151308997e-01
 Spin= Alpha
 Occup=  2.00000000000000000e+00
  1  0.00000000000000000e+00
  2  0.00000000000000000e+00
  3  0.00000000000000000e+00
  4  6.31185463421241377e-01
  5  0.00000000000000000e+00
  6  0.00000000000000000e+00
  7  4.95700540177547944e-01
  8  0.00000000000000000e+00
  9  0.00000000000000000e+00
 10  0.00000000000000000e+00
 11  1.81909267511430779e-02
 12  0.00000000000000000e+00
 13  0.00000000000000000e+00
 14  0.00000000000000000e+00
 15  0.00000000000000000e+00
 16  0.00000000000000000e+00
 17  3.10340688478221091e-02
 18  0.00000000000000000e+00
 19  0.00000000000000000e+00
 20  0.00000000000000000e+00
 21  0.00000000000000000e+00
 22  3.10340688478221091e-02
 23  0.00000000000000000e+00
 24  0.00000000000000000e+00
 Sym= A1
 Ene=  1.85477296316564289e-01
 Spin= Alpha
 Occup=  0.00000000000000000e+00
  1  5.20352035654070774e-02
  2 -7.26423163584096893e-02
  3 -1.00207394652453274e+00
  4  0.00000000000000000e+00
  5  0.00000000000000000e+00
  6 -1.90698163535685056e-01
  7  0.00000000000000000e+00
  8  0.00000000000000000e+00
  9 -3.37125893293933554e-01
 10 -7.52102523389807775e-03
 11  0.00000000000000000e+00
 12  0.00000000000000000e+00
 13  9.94507534105347479e-03
 14  0.00000000000000000e+00
 15  5.89910179133259910e-02
 16  8.29055112781184822e-01
 17  0.00000000000000000e+00
 18 -1.74848773071132647e-02
 19 -1.62860642041544323e-02
 20  5.89910179133259910e-02
 21  8.29055112781184822e-01
 22  0.00000000000000000e+00
 23  1.74848773071132647e-02
 24 -1.62860642041544323e-02
 Sym= B2
 Ene=  2.56168880261423759e-01
 Spin= Alpha
 Occup=  0.00000000000000000e+00
  1  0.00000000000000000e+00
  2  0.00000000000000000e+00
  3  0.00000000000000000e+00
  4  0.00000000000000000e+00
  5  2.83319477531267516e-01
  6  0.00000000000000000e+00
  7  0.00000000000000000e+00
  8  6.71007457840382848e-01
  9  0.00000000000000000e+00
 10  0.00000000000000000e+00
 11  0.00000000000000000e+00
 12  2.12196388409315664e-02
 13  0.00000000000000000e+00
 14  0.00000000000000000e+00
 15 -2.60871999295130448e-02
 16 -1.44349247194775265e+00
 17  0.00000000000000000e+00
 18  2.07929627002765294e-02
 19  1.71324112973225036e-02
 20  2.60871999295130448e-02
 21  1.44349247194775265e+00
 22  0.00000000000000000e+00
 23  2.07929627002765294e-02
 24 -1.71324112973225036e-02
 Sym= B2
 Ene=  7.88905200713227783e-01
 Spin= Alpha
 Occup=  0.00000000000000000e+00
  1  0.00000000000000000e+00
  2  0.00000000000000000e+00
  3  0.00000000000000000e+00
  4  0.00000000000000000e+00
  5  2.68098209068871052e-01
  6  0.00000000000000000e+00
  7  0.00000000000000000e+00
  8  4.60270405100686064e-01
  9  0.00000000000000000e+00
 10  0.00000000000000000e+00
 11  0.00000000000000000e+00
 12 -1.11705417159881040e-01
 13  0.00000000000000000e+00
 14  0.00000000000000000e+00
 15 -9.44267417088635375e-01
 16  6.86990871695510541e-01
 17  0.00000000000000000e+00
 18 -7.39663193782543471e-02
 19 -1.52721370767316178e-01
 20  9.44267417088635375e-01
 21 -6.86990871695510541e-01
 22  0.00000000000000000e+00
 23 -7.39663193782543471e-02
 24  1.52721370767316178e-01
 Sym= A1
 Ene=  8.53887847739817962e-01
 Spin= Alpha
 Occup=  0.00000000000000000e+00
  1  6.52315275434531133e-02
  2  2.55932446539404501e-01
  3 -3.19868639171253133e-01
  4  0.00000000000000000e+00
  5  0.00000000000000000e+00
  6  3.29260271493825085e-01
  7  0.00000000000000000e+00
  8  0.00000000000000000e+00
  9 -9.36140305521399388e-03
 10 -9.69295417706867368e-04
 11  0.00000000000000000e+00
 12  0.00000000000000000e+00
 13  1.06954014917461329e-01
 14  0.00000000000000000e+00
 15 -7.87926501082580666e-01
 16  5.48062791769146407e-01
 17  0.00000000000000000e+00
 18 -2.95664153985222666e-01
 19 -5.92567273445510564e-02
 20 -7.87926501082580666e-01
 21  5.48062791769146407e-01
 22  0.00000000000000000e+00
 23  2.95664153985222666e-01
 24 -5.92567273445510564e-02
 Sym= A1
 Ene=  1.16370249924250779e+00
 Spin= Alpha
 Occup=  0.00000000000000000e+00
  1  3.32095648436105681e-03
  2  1.15106874725149091e-01
  3  7.47211225473484286e-01
  4  0.00000000000000000e+00
  5  0.00000000000000000e+00
  6 -7.54645548637890795e-01
  7  0.00000000000000000e+00
  8  0.00000000000000000e+00
  9  1.27859549646207227e+00
 10  1.27603955545279122e-02
 11  0.00000000000000000e+00
 12  0.00000000000000000e+00
 13  6.73364639445683030e-03
 14  0.00000000000000000e+00
 15 -5.46069230137192996e-01
 16 -1.12922121470483305e-01
 17  0.00000000000000000e+00
 18  8.42438090391436634e-02
 19  2.50854154317604494e-01
 20 -5.46069230137192996e-01
 21 -1.12922121470483305e-01
 22  0.00000000000000000e+00
 23 -8.42438090391436634e-02
 24  2.50854154317604494e-01
 Sym= B1
 Ene=  1.20044909436371539e+00
 Spin= Alpha
 Occup=  0.00000000000000000e+00
  1  0.00000000000000000e+00
  2  0.00000000000000000e+00
  3  0.00000000000000000e+00
  4  9.67831833931650953e-01
  5  0.00000000000000000e+00
  6  0.00000000000000000e+00
  7 -1.02478817997987015e+00
  8  0.00000000000000000e+00
  9  0.00000000000000000e+00
 10  0.00000000000000000e+00
 11  3.49702105856704998e-03
 12  0.00000000000000000e+00
 13  0.00000000000000000e+00
 14  0.00000000000000000e+00
 15  0.00000000000000000e+00
 16  0.00000000000000000e+00
 17 -8.63020850328789085e-03
 18  0.00000000000000000e+00
 19  0.00000000000000000e+00
 20  0.00000000000000000e+00
 21  0.00000000000000000e+00
 22 -8.63020850328789085e-03
 23  0.00000000000000000e+00
 24  0.00000000000000000e+00
 Sym= B2
 Ene=  1.25344161481882876e+00
 Spin= Alpha
 Occup=  0.00000000000000000e+00
  1  0.00000000000000000e+00
  2  0.00000000000000000e+00
  3  0.00000000000000000e+00
  4  0.00000000000000000e+00
  5  7.34336060421099890e-01
  6  0.00000000000000000e+00
  7  0.00000000000000000e+00
  8 -1.76373679669594408e+00
  9  0.00000000000000000e+00
 10  0.00000000000000000e+00
 11  0.00000000000000000e+00
 12 -4.43861910533564913e-02
 13  0.00000000000000000e+00
 14  0.00000000000000000e+00
 15  3.79166580724091096e-01
 16  8.24626856647564077e-01
 17  0.00000000000000000e+00
 18 -3.02667006256381654e-01
 19 -1.86493054135203895e-01
 20 -3.79166580724091096e-01
 21 -8.24626856647564077e-01
 22  0.00000000000000000e+00
 23 -3.02667006256381654e-01
 24  1.86493054135203895e-01
 Sym= A1
 Ene=  1.44494226609601895e+00
 Spin= Alpha
 Occup=  0.00000000000000000e+00
  1  2.02137292497509946e-01
  2  5.29537091061063503e-01
  3 -5.07121524779010624e-01
  4  0.00000000000000000e+00
  5  0.00000000000000000e+00
  6 -1.32581918447787522e-01
  7  0.00000000000000000e+00
  8  0.00000000000000000e+00
  9  7.39424983534068603e-01
 10 -1.17240659797366767e-01
 11  0.00000000000000000e+00
 12  0.00000000000000000e+00
 13 -4.85972844595210143e-03
 14  0.00000000000000000e+00
 15 -3.32920557750733537e-01
 16  2.09441175640975197e-01
 17  0.00000000000000000e+00
 18  3.29558692712527967e-01
 19 -5.45359795212494114e-01
 20 -3.32920557750733537e-01
 21  2.09441175640975197e-01
 22  0.00000000000000000e+00
 23 -3.29558692712527967e-01
 24 -5.45359795212494114e-01
 Sym= A2
 Ene=  1.47657776271069641e+00
 Spin= Alpha
 Occup=  0.00000000000000000e+00
  1  0.00000000000000000e+00
  2  0.00000000000000000e+00
  3  0.00000000000000000e+00
  4  0.00000000000000000e+00
  5  0.00000000000000000e+00
  6  0.00000000000000000e+00
  7  0.00000000000000000e+00
  8  0.00000000000000000e+00
  9  0.00000000000000000e+00
 10  0.00000000000000000e+00
 11  0.00000000000000000e+00
 12  0.00000000000000000e+00
 13  0.00000000000000000e+00
 14  1.31348967029050162e-01
 15  0.00000000000000000e+00
 16  0.00000000000000000e+00
 17  6.85569243936472783e-01
 18  0.00000000000000000e+00
 19  0.00000000000000000e+00
 20  0.00000000000000000e+00
 21  0.00000000000000000e+00
 22 -6.85569243936472783e-01
 23  0.00000000000000000e+00
 24  0.00000000000000000e+00
 Sym= B1
 Ene=  1.67507941022790496e+00
 Spin= Alpha
 Occup=  0.00000000000000000e+00
  1  0.00000000000000000e+00
  2  0.00000000000000000e+00
  3  0.00000000000000000e+00
  4  1.92811225495220298e-02
  5  0.00000000000000000e+00
  6  0.00000000000000000e+00
  7  6.33924062236451147e-01
  8  0.00000000000000000e+00
  9  0.00000000000000000e+00
 10  0.00000000000000000e+00
 11 -1.60842281801916731e-01
 12  0.00000000000000000e+00
 13  0.00000000000000000e+00
 14  0.00000000000000000e+00
 15  0.00000000000000000e+00
 16  0.00000000000000000e+00
 17 -7.66982243758632554e-01
 18  0.00000000000000000e+00
 19  0.00000000000000000e+00
 20  0.00000000000000000e+00
 21  0.00000000000000000e+00
 22 -7.66982243758632554e-01
 23  0.00000000000000000e+00
 24  0.00000000000000000e+00
 Sym= A1
 Ene=  1.86764107227462928e+00
 Spin= Alpha
 Occup=  0.00000000000000000e+00
  1  7.24580229209343951e-01
  2  1.59345286740011960e+00
  3 -3.03335559561415469e+00
  4  0.00000000000000000e+00
  5  0.00000000000000000e+00
  6 -1.08921654410469443e-01
  7  0.00000000000000000e+00
  8  0.00000000000000000e+00
  9 -9.68072063986194054e-01
 10  1.14194686214789967e-01
 11  0.00000000000000000e+00
 12  0.00000000000000000e+00
 13 -1.08177714354500618e-01
 14  0.00000000000000000e+00
 15  8.27954309580938630e-01
 16  3.87844265237624830e-01
 17  0.00000000000000000e+00
 18 -3.72876914096824552e-01
 19  2.35134764808513017e-02
 20  8.27954309580938630e-01
 21  3.87844265237624830e-01
 22  0.00000000000000000e+00
 23  3.72876914096824552e-01
 24  2.35134764808513017e-02
 Sym= B2
 Ene=  1.93499494878874234e+00
 Spin= Alpha
 Occup=  0.00000000000000000e+00
  1  0.00000000000000000e+00
  2  0.00000000000000000e+00
  3  0.00000000000000000e+00
  4  0.00000000000000000e+00
  5  1.04390128581623304e-02
  6  0.00000000000000000e+00
  7  0.00000000000000000e+00
  8 -9.01263529734033120e-01
  9  0.00000000000000000e+00
 10  0.00000000000000000e+00
 11  0.00000000000000000e+00
 12  2.94582826722519960e-02
 13  0.00000000000000000e+00
 14  0.00000000000000000e+00
 15  3.87500559307129566e-01
 16  9.15798247429260998e-02
 17  0.00000000000000000e+00
 18  4.71397506552181156e-01
 19 -6.93276469379840554e-01
 20 -3.87500559307129566e-01
 21 -9.15798247429260998e-02
 22  0.00000000000000000e+00
 23  4.71397506552181156e-01
 24  6.93276469379840554e-01
 Sym= B2
 Ene=  2.45170024926637176e+00
 Spin= Alpha
 Occup=  0.00000000000000000e+00
  1  0.00000000000000000e+00
  2  0.00000000000000000e+00
  3  0.00000000000000000e+00
  4  0.00000000000000000e+00
  5  8.38660343283187282e-01
  6  0.00000000000000000e+00
  7  0.00000000000000000e+00
  8  1.52312580598359310e-01
  9  0.00000000000000000e+00
 10  0.00000000000000000e+00
 11  0.00000000000000000e+00
 12 -1.38521852559141401e-01
 13  0.00000000000000000e+00
 14  0.00000000000000000e+00
 15 -2.94567460319966667e-01
 16 -3.30002487879552275e-01
 17  0.00000000000000000e+00
 18  7.24235403191654803e-01
 19  5.54661249757500197e-01
 20  2.94567460319966667e-01
 21  3.30002487879552275e-01
 22  0.00000000000000000e+00
 23  7.24235403191654803e-01
 24 -5.54661249757500197e-01
 Sym= A1
 Ene=  2.48930918383028388e+00
 Spin= Alpha
 Occup=  0.00000000000000000e+00
  1  2.77265861219977927e-01
  2  7.27074448513496230e-01
  3  7.94144099649400026e-01
  4  0.00000000000000000e+00
  5  0.00000000000000000e+00
  6  6.69103938519441277e-01
  7  0.00000000000000000e+00
  8  0.00000000000000000e+00
  9  1.80307660532134123e-01
 10 -5.32439444735837222e-02
 11  0.00000000000000000e+00
 12  0.00000000000000000e+00
 13  2.17300887575460094e-01
 14  0.00000000000000000e+00
 15 -4.78555126740681069e-01
 16 -1.59088995196916050e-01
 17  0.00000000000000000e+00
 18  7.44555639570430139e-01
 19  5.36850098758459460e-01
 20 -4.78555126740681069e-01
 21 -1.59088995196916050e-01
 22  0.00000000000000000e+00
 23 -7.44555639570430139e-01
 24  5.36850098758459460e-01
 Sym= B1
 Ene=  3.28589473477800631e+00
 Spin= Alpha
 Occup=  0.00000000000000000e+00
  1  0.00000000000000000e+00
  2  0.00000000000000000e+00
  3  0.00000000000000000e+00
  4  1.16956760858844544e-02
  5  0.00000000000000000e+00
  6  0.00000000000000000e+00
  7 -3.11409117300641802e-01
  8  0.00000000000000000e+00
  9  0.00000000000000000e+00
 10  0.00000000000000000e+00
 11 -1.04267715197088084e+00
 12  0.00000000000000000e+00
 13  0.00000000000000000e+00
 14  0.00000000000000000e+00
 15  0.00000000000000000e+00
 16  0.00000000000000000e+00
 17  3.98095081824822672e-01
 18  0.00000000000000000e+00
 19  0.00000000000000000e+00
 20  0.00000000000000000e+00
 21  0.00000000000000000e+00
 22  3.98095081824822672e-01
 23  0.00000000000000000e+00
 24  0.00000000000000000e+00
 Sym= A2
 Ene=  3.33882436701476593e+00
 Spin= Alpha
 Occup=  0.00000000000000000e+00
  1  0.00000000000000000e+00
  2  0.00000000000000000e+00
  3  0.00000000000000000e+00
  4  0.00000000000000000e+00
  5  0.00000000000000000e+00
  6  0.00000000000000000e+00
  7  0.00000000000000000e+00
  8  0.00000000000000000e+00
  9  0.00000000000000000e+00
 10  0.00000000000000000e+00
 11  0.00000000000000000e+00
 12  0.00000000000000000e+00
 13  0.00000000000000000e+00
 14  1.06605730001767607e+00
 15  0.00000000000000000e+00
 16  0.00000000000000000e+00
 17 -3.71202868824818122e-01
 18  0.00000000000000000e+00
 19  0.00000000000000000e+00
 20  0.00000000000000000e+00
 21  0.00000000000000000e+00
 22  3.71202868824818122e-01
 23  0.00000000000000000e+00
 24  0.00000000000000000e+00
 Sym= A1
 Ene=  3.51054166361253950e+00
 Spin= Alpha
 Occup=  0.00000000000000000e+00
  1  8.42168201347999607e-02
  2  1.54149705784938917e-01
  3 -5.59179538079028871e-01
  4  0.00000000000000000e+00
  5  0.00000000000000000e+00
  6 -1.92613347228378813e-02
  7  0.00000000000000000e+00
  8  0.00000000000000000e+00
  9 -5.38025029383239262e-01
 10 -1.08439584754207363e+00
 11  0.00000000000000000e+00
 12  0.00000000000000000e+00
 13 -1.75364089178446148e-01
 14  0.00000000000000000e+00
 15  3.06736807805295331e-01
 16  3.79595188197015820e-02
 17  0.00000000000000000e+00
 18 -3.52749363346469169e-01
 19  3.14733951617448104e-01
 20  3.06736807805295331e-01
 21  3.79595188197015820e-02
 22  0.00000000000000000e+00
 23  3.52749363346469169e-01
 24  3.14733951617448104e-01
 Sym= A1
 Ene=  3.86579878594376503e+00
 Spin= Alpha
 Occup=  0.00000000000000000e+00
  1  1.43315989667152532e-01
  2  1.76952830716027354e-01
  3 -2.26769320774965433e+00
  4  0.00000000000000000e+00
  5  0.00000000000000000e+00
  6 -4.04290277915129170e-01
  7  0.00000000000000000e+00
  8  0.00000000000000000e+00
  9 -9.21411233467602897e-01
 10 -1.34693757295559907e-01
 11  0.00000000000000000e+00
 12  0.00000000000000000e+00
 13  1.15975170333920574e+00
 14  0.00000000000000000e+00
 15  1.23715369998312807e+00
 16  1.91787930403322066e-01
 17  0.00000000000000000e+00
 18 -6.20509628855215545e-01
 19 -4.93244202238622309e-01
 20  1.23715369998312807e+00
 21  1.91787930403322066e-01
 22  0.00000000000000000e+00
 23  6.20509628855215545e-01
 24 -4.93244202238622309e-01
 Sym= B2
 Ene=  4.14725749223136209e+00
 Spin= Alpha
 Occup=  0.00000000000000000e+00
  1  0.00000000000000000e+00
  2  0.00000000000000000e+00
  3  0.00000000000000000e+00
  4  0.00000000000000000e+00
  5  4.68165263984156033e-01
  6  0.00000000000000000e+00
  7  0.00000000000000000e+00
  8  1.14415003613700583e+00
  9  0.00000000000000000e+00
 10  0.00000000000000000e+00
 11  0.00000000000000000e+00
 12  1.32532090350642040e+00
 13  0.00000000000000000e+00
 14  0.00000000000000000e+00
 15 -1.08540265827357052e+00
 16 -2.88522515968724580e-01
 17  0.00000000000000000e+00
 18  6.05808937522080981e-01
 19  4.93693385856986411e-01
 20  1.08540265827357052e+00
 21  2.88522515968724580e-01
 22  0.00000000000000000e+00
 23  6.05808937522080981e-01
 24 -4.93693385856986411e-01
