[Molden Format]
[Molpro variables]
_NUMVAR=  790.0000000000000    
_AVOGAD= 0.6022136736000000E+24
_BOLTZ= 0.1380658000000000E-22
_CLIGHT=  29979245800.00000    
_EV2006= 0.3674930886769165E-01
_EV= 0.3674932534394180E-01
_ENULL= 0.8854187817000000E-11
_KJOULE= 0.3808798324128737E-03
_KJOULE/MOL= 0.3808798324128737E-03
_CM= 0.4556335267302901E-05
_CM-1= 0.4556335267302901E-05
_DEB2SI= 0.3335641000000000E-29
_AMU2AU=  1822.888390000000    
_KCAL= 0.1593601117815568E-02
_KCAL/MOL= 0.1593601117815568E-02
_KELVIN2006= 0.3166828861084835E-05
_KELVIN= 0.3166814820820034E-05
_JOULE= 0.4359748200000000E-17
_HERTZ2006= 0.1519829850815779E-15
_HERTZ= 0.1519829846011223E-15
_HZ2006= 0.1519829850815779E-15
_HZ= 0.1519829846011223E-15
_JPCAL=  4.184000000000000    
_PLANCK= 0.6626075540000000E-33
_TOA2006= 0.5291772490000000    
_TOA= 0.5291772090000000    
_TOANG2006= 0.5291772490000000    
_TOANG= 0.5291772090000000    
_TORAD= 0.1745329251994330E-01
_TOCM=  219474.6306700000    
_TODEBYE=  2.541580000000000    
_TOEV2006=  27.21139610000000    
_TOE= 0.4803242000000000E-09
_TOEV=  27.21138390000000    
_TOHERTZ2006=  6579683899900000.    
_TOHERTZ=  6579683920700000.    
_TOHZ2006=  6579683899900000.    
_TOHZ=  6579683920700000.    
_TOK2006=  315773.3000000000    
_TOK=  315774.7000000000    
_TOKCAL=  627.5096000000000    
_TOKELVIN2006=  315773.3000000000    
_TOKELVIN=  315774.7000000000    
_TOKJ=  2625.500000000000    
_TOKJOULE=  2625.500000000000    
_TOKG= 0.1660565586000000E-26
_ANG2006=  1.889725988578923    
_ANG=  1.889726131421507    
_ANGSTROM2006=  1.889725988578923    
_ANGSTROM=  1.889726131421507    
_RPAREF=  0.000000000000000    
_RPADISS=  0.000000000000000    
_IGNORE_UNDEF=  2.000000000000000    
_STRICTCHECK=  0.000000000000000    
_SEW_ONEEL=  0.000000000000000    
_CPPDONE=FALSE
_DKROLL_DONE=  0.000000000000000    
_FOCKDONE=TRUE
_GRADONE=FALSE
_HESSDONE=FALSE
_INTDONE=TRUE
_SCFDONE=TRUE
_MODUL_BLOCK=FALSE
_MODUL_CUDA=FALSE
_MODUL_SLATER=FALSE
_MODUL_MRCC=FALSE
_MODUL_NBO6=FALSE
_MODUL_NECI=TRUE
_MODUL_AIMS=TRUE
_MRCC_EXEC=
_FITC_AO_SAVED=FALSE
_FITC_MO_SAVED=FALSE
_SHARED_FS=TRUE
_LSTYP=SEWARD
_INTYP=INTS
_GEOMTYP=ZMAT
_GRADTYP=ALASKA
_DIRECT=FALSE
_DKHO= -1.000000000000000    
_SYNCM=  0.000000000000000    
_BASIS=USERDEF
_ZORIENT=  1.000000000000000    
_NELEC=  18.00000000000000    
!SPIN=  0.000000000000000    
_QSDSTEP=  0.000000000000000    
_QSDIRC=  0.000000000000000    
_PROGRAM=MATROP
_CPUSTEP= 0.1000000000000023E-01
_SYSSTEP= 0.1000000000000001E-01
_WALLSTEP= 0.2000000000000000    
!DFSCF=  0.000000000000000    
!SCSGRD=  0.000000000000000    
_BASINP=  610.0000000000000    
_CPUTOT=  2.470000000000000    
_DFTEXFAC=  1.000000000000000    
_DMX=  0.000000000000000    
_DMY=  0.000000000000000    
_DMZ=  0.000000000000000    
_DMX_SCF= 0.7443828750337677    
_DMY_SCF=  0.000000000000000    
_DMZ_SCF=  0.000000000000000    
_EHOMO=-0.4665071449525308    
_ELUMO= 0.1919357610532393    
_ENUC=  38.06106386395650    
_EPS1= -20.65659980397805    
_EPS2= -20.65635912906157    
_GRADEXFAC=  9999.000000000000    
_GRADMETHOD=TRUE
_NMRMETHOD=  0.000000000000000    
!GRID_FREEZE= -1.000000000000000    
_ITERATIONS=  0.000000000000000    
_LASTNELEC=  10.00000000000000    
_LASTSPIN=  2.000000000000000    
_LASTSYM=  1.000000000000000    
_MPP_PROG=  0.000000000000000    
_NPROC_MPP=  1.000000000000000    
_NPROC_MPPX=  1.000000000000000    
_NPROC_SMP=  16.00000000000000    
_NUMSTEP=  0.000000000000000    
_ORBITAL=  2141.200000000000    
_PI=  3.141592653589793    
_SEIG_MIN= 0.2212598707150805E-01
_SEWPROP=TRUE
_STATUS=  0.000000000000000    
_SYSTOT=  1.350000000000000    
_VERSION=  2012001.000000000    
_WALLTOT=  19.90000000000000    
_DATE=24-Jan-19
_LASTORB=MCSCF
_MACHINE=Linux-4.9.0-8-amd64/nympha18.meta.zcu.cz(x86_64) (16 PROC) 64 bit serial version
_OUTPUT=/auto/brno2/home/masiz4am/git/UKRmol-in/tests/suite/C2_target_CAS2/molpro.xml
_PGROUP=C2
_TIME=16:19:26
_LIBMOL=/afs/ics.muni.cz/software/molpro-2012.1/molprop_2012_1_Linux_x86_64_i8/lib/
!VIBCNT=  0.000000000000000    
!RGHFCNT=  0.000000000000000    
!SURFREC=  0.000000000000000    
!POLYREC=  0.000000000000000    
!DIPREC=  0.000000000000000    
!VSCFREC=  0.000000000000000    
!VCIREC=  0.000000000000000    
!PVCIREC=  0.000000000000000    
!VMP2REC=  0.000000000000000    
!VMCSCFREC=  0.000000000000000    
!VMRCIREC=  0.000000000000000    
!VIBINFO=  0.000000000000000    
!GAREC=  0.000000000000000    
!SCFORB=  21002.00000000000    
!MCORB=  21412.00000000000    
!NEWMOL= -1.000000000000000    
!NEWSYM= -1.000000000000000    
_SLFILES=slscratch
_NGSSTO=  9.000000000000000    
_SIN=SIN
_COS=COS
_TAN=TAN
_ACOS=ACOS
_ASIN=ASIN
_ATAN=ATAN
_COSH=COSH
_SINH=SINH
_TANH=TANH
_ABS=ABS
_MOD=MOD
_ERF=ERF
_REFC=REFC
_ERFC=ERFC
_HYPOT=HYPOT
_J0=J0
_J1=J1
_JN=JN
_GAMMA=GAMMA
_LGAMMA=LGAMMA
_Y0=Y0
_Y1=Y1
_YN=YN
_EXP=EXP
_LOG=LOG
_LOG10=LOG10
_SQRT=SQRT
_INT=INT
_NINT=NINT
_MAX=MAX
_MIN=MIN
_COSMO=  0.000000000000000    
_COSMOIT=  0.000000000000000    
_COSMOES=  0.000000000000000    
_COSMOEDS=  0.000000000000000    
_COSMOEC=  0.000000000000000    
_COSMOEDCORR=  0.000000000000000    
_FEPSI=  1.000000000000000    
_SL_IsMM=  0.000000000000000    
_SL_NSYM=  2.000000000000000    
_SL_System_BitSw=  0.000000000000000    
_SL_Unique_atoms=  0.000000000000000    
_SL_GRAD=  0.000000000000000    
_SL_MAXUPD_Hess=  5.000000000000000    
_SL_N_PRINT_COD=  5.000000000000000    
_SL_PRINT_CODES=  0.000000000000000    
_SL_BasType=  0.000000000000000    
_SL_Energy_Pred=  0.000000000000000    
_SL_New_Coords=  0.000000000000000    
_SL_Total_Nuclea=  0.000000000000000    
_SL_Highest_Mltp=  0.000000000000000    
_SL_Ref_Geom=  0.000000000000000    
_SL_Symmetry_ope=  1.000000000000000    
_SL_agrad=  0.000000000000000    
_SL_GrdMax=  0.000000000000000    
_SL_GrdNorm=  0.000000000000000    
_SL_GrdRMS=  0.000000000000000    
!LATTICE= -1.000000000000000    
!NEWLATTICE=  0.000000000000000    
!LATGRAD_VAR=FALSE
!SEW_LATTICE=  1.000000000000000    
!LOCAL=  0.000000000000000    
!SAVEDOM= -1.000000000000000    
!RESTDOM= -1.000000000000000    
!SAVEDOM_HF= -1.000000000000000    
!RESTDOM_HF= -1.000000000000000    
!HESSREC=  0.000000000000000    
!FREQREC=  0.000000000000000    
!NMODREC=  0.000000000000000    
!GTASKS=  0.000000000000000    
!HTASKS=  0.000000000000000    
!THRCHG= 0.1000000000000000    
!DEBUG= -1.000000000000000    
!CFIT_CPHF=  0.000000000000000    
!RDOMAUX_CPHF=  3.000000000000000    
!THRAO_CPHF= 0.1000000000000000E-09
!THRMO_CPHF= 0.1000000000000000E-08
!THROV_CPHF= 0.1000000000000000E-11
!THRSW_CPHF= 0.1000000000000000E-09
!THRPROD_CPHF= 0.1000000000000000E-08
!THRAOPR_CPHF= 0.1000000000000000E-11
!CFIT_SCFGRD=  0.000000000000000    
!RDOMAUX_SCFGRD=  5.000000000000000    
!THRAO_SCFGRD= 0.1000000000000000E-09
!THRMO_SCFGRD= 0.1000000000000000E-08
!THROV_SCFGRD= 0.1000000000000000E-11
!THRSW_SCFGRD= 0.1000000000000000E-09
!THRPROD_SCFGRD= 0.1000000000000000E-08
!THRAOPR_SCFGRD= 0.1000000000000000E-11
!LOCFIT_SCF=  0.000000000000000    
!LOCFIT_MP2= -1.000000000000000    
_RIDOM=  0.000000000000000    
!CC2_METHOD=  0.000000000000000    
_BASIS2006=FALSE
_SVDDEL= -1.000000000000000    
_SVDDELA= -1.000000000000000    
_SVDDELP= -1.000000000000000    
_SVDDELF= -1.000000000000000    
_SVDDELS= -1.000000000000000    
_SVDDEL_ABS= -1.000000000000000    
_SVDDELA_ABS= -1.000000000000000    
_SVDDELP_ABS= -1.000000000000000    
_SVDDELF_ABS= -1.000000000000000    
_SVDDELS_ABS= -1.000000000000000    
_MAXBASIS=  0.000000000000000    
!OPT_CONICAL=  0.000000000000000    
!CLEARSP_JGRID=  0.000000000000000    
_4EXT_NDISKS=  1.000000000000000    
!ZMP=  0.000000000000000    
_MAXIT_ZMP=  500.0000000000000    
_MAXDIS_ZMP=  100.0000000000000    
_ACCU_ZMP=  14.00000000000000    
_SHIFTA_ZMP= -100.0000000000000    
!EMBEDFLAG=  1.000000000000000    
!EMBED=FALSE
!EMBED_F12=FALSE
!EMBEDNUC=  0.000000000000000    
_EMBEDENERGY=  0.000000000000000    
_KSPACETIME=  0.000000000000000    
_RSPACETIME=  0.000000000000000    
!EMBED_DFC=FALSE
!NUM_VOIDS=  0.000000000000000    
_IBODY=  0.000000000000000    
_EMBE_TOTAL=  0.000000000000000    
_EMBE_HF=  0.000000000000000    
_EMBE_CORR=  0.000000000000000    
!EDFT=  0.000000000000000    
_IFASTLATGRAD=  0.000000000000000    
_SINDEX=  0.000000000000000    
M_NAME=CASSCF(10,8)
M_CLOSED=  2.000000000000000    
M_OCC=  6.000000000000000    
GX1=-0.1043128750000000    
GY1=  0.000000000000000    
GZ1=  1.315816206000000    
GX2= 0.8345029970000000    
GY2=  1.477198805000000    
GZ2=  1.699052636000000    
GX3=-0.1043128750000000    
GY3=  0.000000000000000    
GZ3= -1.315816206000000    
GX4= 0.8345029970000000    
GY4= -1.477198805000000    
GZ4= -1.699052636000000    
_TRDMX= 0.3807005516305452E-01
_TRDMY=  0.000000000000000    
_TRDMZ=  0.000000000000000    
[Atoms] Angs
O     1    8        -0.0551999961        0.0000000000        0.6962999474
H     2    1         0.4415999669        0.7816999408        0.8990999319
O     3    8        -0.0551999961        0.0000000000       -0.6962999474
H     4    1         0.4415999669       -0.7816999408       -0.8990999319
[GTO]
  1 0
 s    8  1.00
  0.1172000000D+05  0.7096459465D-03
  0.1759000000D+04  0.5467272292D-02
  0.4008000000D+03  0.2782311861D-01
  0.1137000000D+03  0.1047477397D+00
  0.3703000000D+02  0.2829208464D+00
  0.1327000000D+02  0.4484952387D+00
  0.5025000000D+01  0.2708168852D+00
  0.1013000000D+01  0.1545029161D-01
 s    8  1.00
  0.1172000000D+05 -0.3144434117D-03
  0.1759000000D+04 -0.2482137681D-02
  0.4008000000D+03 -0.1231635538D-01
  0.1137000000D+03 -0.5053891734D-01
  0.3703000000D+02 -0.1393849033D+00
  0.1327000000D+02 -0.3250774948D+00
  0.5025000000D+01 -0.2298483076D+00
  0.1013000000D+01  0.1095379347D+01
 s    1  1.00
  0.3023000000D+00  0.1000000000D+01
 p    3  1.00
  0.1770000000D+02  0.6267916628D-01
  0.3854000000D+01  0.3335365659D+00
  0.1046000000D+01  0.7412396416D+00
 p    1  1.00
  0.2753000000D+00  0.1000000000D+01
 d    1  1.00
  0.1185000000D+01  0.1000000000D+01
  
  3 0
 s    8  1.00
  0.1172000000D+05  0.7096459465D-03
  0.1759000000D+04  0.5467272292D-02
  0.4008000000D+03  0.2782311861D-01
  0.1137000000D+03  0.1047477397D+00
  0.3703000000D+02  0.2829208464D+00
  0.1327000000D+02  0.4484952387D+00
  0.5025000000D+01  0.2708168852D+00
  0.1013000000D+01  0.1545029161D-01
 s    8  1.00
  0.1172000000D+05 -0.3144434117D-03
  0.1759000000D+04 -0.2482137681D-02
  0.4008000000D+03 -0.1231635538D-01
  0.1137000000D+03 -0.5053891734D-01
  0.3703000000D+02 -0.1393849033D+00
  0.1327000000D+02 -0.3250774948D+00
  0.5025000000D+01 -0.2298483076D+00
  0.1013000000D+01  0.1095379347D+01
 s    1  1.00
  0.3023000000D+00  0.1000000000D+01
 p    3  1.00
  0.1770000000D+02  0.6267916628D-01
  0.3854000000D+01  0.3335365659D+00
  0.1046000000D+01  0.7412396416D+00
 p    1  1.00
  0.2753000000D+00  0.1000000000D+01
 d    1  1.00
  0.1185000000D+01  0.1000000000D+01
  
  2 0
 s    3  1.00
  0.1301000000D+02  0.3349872639D-01
  0.1962000000D+01  0.2348008012D+00
  0.4446000000D+00  0.8136829579D+00
 s    1  1.00
  0.1220000000D+00  0.1000000000D+01
 p    1  1.00
  0.7270000000D+00  0.1000000000D+01
  
  4 0
 s    3  1.00
  0.1301000000D+02  0.3349872639D-01
  0.1962000000D+01  0.2348008012D+00
  0.4446000000D+00  0.8136829579D+00
 s    1  1.00
  0.1220000000D+00  0.1000000000D+01
 p    1  1.00
  0.7270000000D+00  0.1000000000D+01
 
 
[MO]
 Sym=      1.1
 Ene=     -20.6566
 Spin= Alpha
 Occup=    2.000000
1 0.70777786472199
2 0.000846765189324
3 -0.002177869130973
4 0.000271710263955
5 0.000726687009294
6 -0.000974013127321
7 -0.000247800081468
8 -0.000394038843385
9 0.000039780982557
10 0.000035552000877
11 0.000172569855140
12 -0.000208121856017
13 0.000079153999129
14 0.000021347795191
15 0.000041785804487
16 0.70777786472199
17 0.000846765189324
18 -0.002177869130973
19 0.000271710263955
20 -0.000726687009294
21 0.000974013127321
22 -0.000247800081468
23 0.000394038843385
24 -0.000039780982557
25 0.000035552000877
26 0.000172569855140
27 -0.000208121856017
28 -0.000079153999129
29 -0.000021347795191
30 0.000041785804487
31 -0.000280505486377
32 0.000473734094470
33 0.000250154840095
34 0.000394347755546
35 -0.000027197975542
36 -0.000280505486377
37 0.000473734094470
38 0.000250154840095
39 -0.000394347755546
40 0.000027197975542
 Sym=      1.2
 Ene=     -20.6564
 Spin= Alpha
 Occup=    2.000000
1 0.70788878127377
2 0.000891409489594
3 -0.003651826536050
4 0.000316250494653
5 0.000496031434639
6 -0.000443217155248
7 -0.000175025047290
8 -0.000391758641881
9 0.001348738439014
10 -0.000009023371676
11 0.000153620136892
12 -0.000144596765215
13 0.000077604487286
14 0.000033591124315
15 0.000018193649990
16 -0.70788878127377
17 -0.000891409489594
18 0.003651826536050
19 -0.000316250494653
20 0.000496031434639
21 -0.000443217155248
22 0.000175025047290
23 -0.000391758641881
24 0.001348738439014
25 0.000009023371676
26 -0.000153620136892
27 0.000144596765215
28 0.000077604487286
29 0.000033591124315
30 -0.000018193649990
31 -0.000221247933436
32 0.000071906875509
33 0.000303450774439
34 0.000472523872812
35 0.000069659188601
36 0.000221247933436
37 -0.000071906875509
38 -0.000303450774439
39 0.000472523872812
40 0.000069659188601
 Sym=      2.1
 Ene=      -1.3414
 Spin= Alpha
 Occup=    2.000000
1 -0.004141213575639
2 0.32835886729976
3 0.35112515937299
4 -0.018941640584354
5 -0.14570024022794
6 0.020949640897650
7 -0.014281454191641
8 -0.11769418035123
9 0.037642048483006
10 -0.003432303965764
11 -0.007878408724237
12 0.011310712690001
13 -0.001445073126242
14 0.000741245239923
15 -0.000293597307748
16 -0.004141213575639
17 0.32835886729976
18 0.35112515937299
19 -0.018941640584354
20 0.14570024022794
21 -0.020949640897650
22 -0.014281454191641
23 0.11769418035123
24 -0.037642048483006
25 -0.003432303965764
26 -0.007878408724237
27 0.011310712690001
28 0.001445073126242
29 -0.000741245239923
30 -0.000293597307748
31 0.006766477476405
32 -0.010359172802638
33 -0.004649681802644
34 -0.012560149132325
35 0.000401579968619
36 0.006766477476405
37 -0.010359172802638
38 -0.004649681802644
39 0.012560149132325
40 -0.000401579968619
 Sym=      2.2
 Ene=      -1.0278
 Spin= Alpha
 Occup=    2.000000
1 0.001106470532839
2 0.32542413631664
3 0.40043229026382
4 -0.024716652942058
5 -0.19866494706391
6 0.083905092483898
7 -0.019488075448319
8 -0.13675651435247
9 0.040767580828988
10 0.004248692802551
11 -0.000177280408183
12 -0.004071412394368
13 -0.002403821496339
14 0.000661010562553
15 0.009469479422175
16 -0.001106470532839
17 -0.32542413631664
18 -0.40043229026382
19 0.024716652942058
20 -0.19866494706391
21 0.083905092483898
22 0.019488075448319
23 -0.13675651435247
24 0.040767580828988
25 -0.004248692802551
26 0.000177280408183
27 0.004071412394368
28 -0.002403821496339
29 0.000661010562553
30 -0.009469479422175
31 -0.004332083483449
32 -0.023022778640433
33 -0.003422763241534
34 -0.009474596497450
35 0.004131583738113
36 0.004332083483449
37 0.023022778640433
38 0.003422763241534
39 -0.009474596497450
40 0.004131583738113
 Sym=      3.2
 Ene=      -0.9725
 Spin= Alpha
 Occup=    1.984440
1 0.001951135032340
2 0.14029628760537
3 0.046942931588679
4 0.095660511307992
5 0.31924870115520
6 0.023736101685859
7 0.027559755842891
8 0.15255263442750
9 -0.005830366565054
10 -0.001374790136560
11 0.010431022156887
12 -0.009056232020326
13 0.009192755624810
14 0.002418407353123
15 -0.009453888254666
16 -0.001951135032340
17 -0.14029628760537
18 -0.046942931588679
19 -0.095660511307992
20 0.31924870115520
21 0.023736101685859
22 -0.027559755842891
23 0.15255263442750
24 -0.005830366565054
25 0.001374790136560
26 -0.010431022156887
27 0.009056232020326
28 0.009192755624810
29 0.002418407353123
30 0.009453888254666
31 0.27576877685006
32 0.041866963535509
33 -0.023628300985654
34 -0.032473989699515
35 -0.014220648211116
36 -0.27576877685006
37 -0.041866963535509
38 0.023628300985654
39 -0.032473989699515
40 -0.014220648211116
 Sym=      3.1
 Ene=      -0.8163
 Spin= Alpha
 Occup=    1.981367
1 0.001156018140763
2 0.060264248956859
3 -0.072614392938664
4 0.23093025928085
5 0.30306292264733
6 -0.007906347892585
7 0.11641241746314
8 0.15410205394913
9 -0.025079137631097
10 -0.002110139323325
11 0.007502692391139
12 -0.005392553067814
13 0.011053893303760
14 -0.008376164303027
15 0.004737648422577
16 0.001156018140763
17 0.060264248956859
18 -0.072614392938664
19 0.23093025928085
20 -0.30306292264733
21 0.007906347892585
22 0.11641241746314
23 -0.15410205394913
24 0.025079137631097
25 -0.002110139323325
26 0.007502692391139
27 -0.005392553067814
28 -0.011053893303760
29 0.008376164303027
30 0.004737648422577
31 0.29480305685918
32 0.050560372511580
33 -0.020374580930994
34 -0.031980100658800
35 -0.011283101844397
36 0.29480305685918
37 0.050560372511580
38 -0.020374580930994
39 0.031980100658800
40 0.011283101844397
 Sym=      4.1
 Ene=      -0.7349
 Spin= Alpha
 Occup=    1.929577
1 -0.002168371042238
2 0.013910649087175
3 -0.036697962438581
4 -0.018678654895053
5 0.049960902735295
6 -0.45764807250580
7 0.006035240718679
8 0.062911555463270
9 -0.25590678394821
10 -0.013954751134753
11 -0.013005588357239
12 0.026960339491992
13 0.000037144083623
14 -0.004278959379492
15 -0.007719588746654
16 -0.002168371042238
17 0.013910649087175
18 -0.036697962438581
19 -0.018678654895053
20 -0.049960902735295
21 0.45764807250580
22 0.006035240718679
23 -0.062911555463270
24 0.25590678394821
25 -0.013954751134753
26 -0.013005588357239
27 0.026960339491992
28 -0.000037144083623
29 0.004278959379492
30 -0.007719588746654
31 -0.066166653034633
32 -0.044349913483819
33 0.004782853077452
34 0.011884000755983
35 -0.008699513082823
36 -0.066166653034633
37 -0.044349913483819
38 0.004782853077452
39 -0.011884000755983
40 0.008699513082823
 Sym=      5.1
 Ene=      -0.5150
 Spin= Alpha
 Occup=    1.576586
1 -0.001312118580046
2 -0.046078268091695
3 -0.015959073194365
4 0.35258117415022
5 -0.27677212261097
6 -0.035685771878647
7 0.26205325084408
8 -0.19308720243338
9 -0.018826330945823
10 0.007081894741913
11 -0.009459102018806
12 0.002377207276893
13 0.002608528059495
14 -0.016175751601037
15 -0.003238190372223
16 -0.001312118580046
17 -0.046078268091695
18 -0.015959073194365
19 0.35258117415022
20 0.27677212261097
21 0.035685771878647
22 0.26205325084408
23 0.19308720243338
24 0.018826330945823
25 0.007081894741913
26 -0.009459102018806
27 0.002377207276893
28 -0.002608528059495
29 0.016175751601037
30 -0.003238190372223
31 -0.075592420361839
32 -0.014218346924583
33 0.020881147044880
34 -0.001870029446123
35 -0.002419220399769
36 -0.075592420361839
37 -0.014218346924583
38 0.020881147044880
39 0.001870029446123
40 0.002419220399769
 Sym=      4.2
 Ene=      -0.3880
 Spin= Alpha
 Occup=    1.534599
1 -0.000426488620276
2 -0.044248755478957
3 -0.097637014291465
4 0.46963712970577
5 -0.14483802918161
6 -0.004978062732869
7 0.33243678845836
8 -0.11504467510073
9 -0.005320470215290
10 0.005655720201572
11 -0.005114625763867
12 -0.000541094437705
13 0.009376176974006
14 0.004563083171882
15 0.005161667314338
16 0.000426488620276
17 0.044248755478957
18 0.097637014291465
19 -0.46963712970577
20 -0.14483802918161
21 -0.004978062732869
22 -0.33243678845836
23 -0.11504467510073
24 -0.005320470215290
25 -0.005655720201572
26 0.005114625763867
27 0.000541094437705
28 0.009376176974006
29 0.004563083171882
30 -0.005161667314338
31 0.096197385188600
32 0.025545197837601
33 0.011895894464221
34 -0.019102878419691
35 -0.002059425916638
36 -0.096197385188600
37 -0.025545197837601
38 -0.011895894464221
39 -0.019102878419691
40 -0.002059425916638
 Sym=      5.2
 Ene=       0.1407
 Spin= Alpha
 Occup=    0.513684
1 -0.007746948958818
2 -0.17686986610790
3 -0.48321184922188
4 -0.040060052970878
5 -0.051173345256980
6 0.53519529524074
7 -0.029097221725732
8 -0.036338401691982
9 0.48475509857714
10 -0.007242877368542
11 -0.010016371536419
12 0.017259248904961
13 -0.000853232197114
14 0.006409331080329
15 0.013304312625612
16 0.007746948958818
17 0.17686986610790
18 0.48321184922188
19 0.040060052970878
20 -0.051173345256980
21 0.53519529524074
22 0.029097221725732
23 -0.036338401691982
24 0.48475509857714
25 0.007242877368542
26 0.010016371536419
27 -0.017259248904961
28 -0.000853232197114
29 0.006409331080329
30 -0.013304312625612
31 0.056599289998670
32 0.19623708394337
33 -0.000616288187172
34 -0.000158433117606
35 0.025782522643756
36 -0.056599289998670
37 -0.19623708394337
38 0.000616288187172
39 -0.000158433117606
40 0.025782522643756
 Sym=      6.1
 Ene=       0.1452
 Spin= Alpha
 Occup=    0.441682
1 0.002921948617572
2 -0.11633044453233
3 -0.52936159033206
4 -0.12713276225542
5 -0.19177428147663
6 -0.071805245710802
7 -0.12916702239858
8 -0.17690425238929
9 -0.085823554522500
10 0.002620382913770
11 0.002635278054867
12 -0.005255660968637
13 -0.001798153461040
14 0.004970156639904
15 0.000033327576444
16 0.002921948617572
17 -0.11633044453233
18 -0.52936159033206
19 -0.12713276225542
20 0.19177428147663
21 0.071805245710802
22 -0.12916702239858
23 0.17690425238929
24 0.085823554522500
25 0.002620382913770
26 0.002635278054867
27 -0.005255660968637
28 0.001798153461040
29 -0.004970156639904
30 0.000033327576444
31 0.16676246614356
32 0.79939178775035
33 0.012184250795490
34 0.017602821513143
35 0.000685411313713
36 0.16676246614356
37 0.79939178775035
38 0.012184250795490
39 -0.017602821513143
40 -0.000685411313713
 Sym=      6.2
 Ene=       0.5304
 Spin= Alpha
 Occup=    0.038064
1 -0.053162104414510
2 -0.18505697146139
3 -0.11789839772622
4 -0.22267110601690
5 -0.40546757572730
6 -0.28085031962403
7 -0.021532787872453
8 -0.016361711106041
9 -0.015764224780262
10 0.008108893821519
11 -0.013186627681847
12 0.005077733860327
13 -0.005492216668788
14 0.000516336078584
15 -0.025222306749741
16 0.053162104414510
17 0.18505697146139
18 0.11789839772622
19 0.22267110601690
20 -0.40546757572730
21 -0.28085031962403
22 0.021532787872453
23 -0.016361711106041
24 -0.015764224780262
25 -0.008108893821519
26 0.013186627681847
27 -0.005077733860327
28 -0.005492216668788
29 0.000516336078584
30 0.025222306749741
31 0.41259930726023
32 0.37330360147656
33 0.019901402405441
34 0.031495257746013
35 -0.006696017670327
36 -0.41259930726023
37 -0.37330360147656
38 -0.019901402405441
39 0.031495257746013
40 -0.006696017670327
 Sym=      7.2
 Ene=       0.6628
 Spin= Alpha
 Occup=    0.000000
1 -0.060412688364334
2 -0.16660632124362
3 0.33172234162843
4 -0.12158177364148
5 -0.12808799011892
6 0.059618028880217
7 0.11352368326741
8 0.24599768480682
9 0.27704272214114
10 -0.012533118503682
11 0.031487456881910
12 -0.018954338378228
13 0.057334056879716
14 0.010770169360936
15 0.029185211979635
16 0.060412688364334
17 0.16660632124362
18 -0.33172234162843
19 0.12158177364148
20 -0.12808799011892
21 0.059618028880217
22 -0.11352368326741
23 0.24599768480682
24 0.27704272214114
25 0.012533118503682
26 -0.031487456881910
27 0.018954338378228
28 0.057334056879716
29 0.010770169360936
30 -0.029185211979635
31 0.62466477610999
32 -1.34161518792481
33 0.11495230379934
34 0.17990939691829
35 0.039275921043953
36 -0.62466477610999
37 1.34161518792481
38 -0.11495230379934
39 0.17990939691829
40 0.039275921043953
 Sym=      7.1
 Ene=       0.8015
 Spin= Alpha
 Occup=    0.000000
1 -0.030640602192585
2 -0.085287433220949
3 0.26774871665130
4 -0.11303096746133
5 -0.28159272311875
6 0.037187002430405
7 0.012668734833066
8 -0.005628939215897
9 -0.091790008664963
10 -0.005094302257127
11 0.049745105067544
12 -0.044650802810417
13 0.064395105559568
14 0.028788036908807
15 0.015612762149785
16 -0.030640602192585
17 -0.085287433220949
18 0.26774871665130
19 -0.11303096746133
20 0.28159272311875
21 -0.037187002430405
22 0.012668734833066
23 0.005628939215897
24 0.091790008664963
25 -0.005094302257127
26 0.049745105067544
27 -0.044650802810417
28 -0.064395105559568
29 -0.028788036908807
30 0.015612762149785
31 0.79233538429259
32 -0.74780772446985
33 0.12384278505321
34 0.19746035517700
35 0.056224168424386
36 0.79233538429259
37 -0.74780772446985
38 0.12384278505321
39 -0.19746035517700
40 -0.056224168424386
 Sym=      8.2
 Ene=       1.0614
 Spin= Alpha
 Occup=    0.000000
1 0.006267032118777
2 -0.10215160925892
3 -0.80591572258905
4 -0.013890891190922
5 0.41558755715331
6 -0.37740790936872
7 -0.23475569740627
8 -0.63954664657259
9 0.88699120032361
10 0.010818702471089
11 0.016189691065981
12 -0.027008393537070
13 0.010256647479480
14 -0.003542375986193
15 0.005140879787494
16 -0.006267032118777
17 0.10215160925892
18 0.80591572258905
19 0.013890891190922
20 0.41558755715331
21 -0.37740790936872
22 0.23475569740627
23 -0.63954664657259
24 0.88699120032361
25 -0.010818702471089
26 -0.016189691065981
27 0.027008393537070
28 0.010256647479480
29 -0.003542375986193
30 -0.005140879787494
31 0.46547985841735
32 0.009034983111677
33 -0.052041824825977
34 -0.10027385225168
35 -0.024865486468381
36 -0.46547985841735
37 -0.009034983111677
38 0.052041824825977
39 -0.10027385225168
40 -0.024865486468381
 Sym=      8.1
 Ene=       1.0991
 Spin= Alpha
 Occup=    0.000000
1 0.039728499446900
2 0.14777909976929
3 0.37324476347883
4 -0.43492234783638
5 -0.14965232567748
6 -0.19572399344815
7 0.62374837692747
8 0.75287641638067
9 0.30574979297815
10 -0.020572881500513
11 -0.031558519751592
12 0.052131401252105
13 0.004013170371181
14 0.007005223970969
15 0.014551085627338
16 0.039728499446900
17 0.14777909976929
18 0.37324476347883
19 -0.43492234783638
20 0.14965232567748
21 0.19572399344815
22 0.62374837692747
23 -0.75287641638067
24 -0.30574979297815
25 -0.020572881500513
26 -0.031558519751592
27 0.052131401252105
28 -0.004013170371181
29 -0.007005223970969
30 0.014551085627338
31 -0.56682503012681
32 -0.12501117496079
33 0.12622680012180
34 0.12931129527409
35 0.16242230423609
36 -0.56682503012681
37 -0.12501117496079
38 0.12622680012180
39 -0.12931129527409
40 -0.16242230423609
 Sym=      9.2
 Ene=       1.1040
 Spin= Alpha
 Occup=    0.000000
1 -0.007974952841421
2 -0.035753134993025
3 -0.26569457768733
4 0.11630627287123
5 -0.24475979028829
6 -0.37088630364376
7 0.19567329900859
8 0.65847960553246
9 1.41577632263598
10 0.019286445772170
11 0.006545307463916
12 -0.025831753236085
13 -0.017666537594347
14 0.002512271768323
15 -0.037772009504950
16 0.007974952841421
17 0.035753134993025
18 0.26569457768733
19 -0.11630627287123
20 -0.24475979028829
21 -0.37088630364376
22 -0.19567329900859
23 0.65847960553246
24 1.41577632263598
25 -0.019286445772170
26 -0.006545307463916
27 0.025831753236085
28 -0.017666537594347
29 0.002512271768323
30 0.037772009504950
31 -0.48045782297662
32 -0.60236293857816
33 0.064175727804220
34 0.10465609840965
35 -0.13363478066212
36 0.48045782297662
37 0.60236293857816
38 -0.064175727804220
39 0.10465609840965
40 -0.13363478066212
 Sym=      9.1
 Ene=       1.1201
 Spin= Alpha
 Occup=    0.000000
1 0.010764299782752
2 0.022948918823580
3 -0.19239636302496
4 -0.47080230429104
5 0.31091735136342
6 0.26393960704197
7 0.34701778350396
8 -0.61290603759578
9 -0.25677157058500
10 0.017382394210729
11 0.026616610829509
12 -0.043999005040238
13 -0.006273663027793
14 -0.007366930895539
15 -0.011930194238073
16 0.010764299782752
17 0.022948918823580
18 -0.19239636302496
19 -0.47080230429104
20 -0.31091735136342
21 -0.26393960704197
22 0.34701778350396
23 0.61290603759578
24 0.25677157058500
25 0.017382394210729
26 0.026616610829509
27 -0.043999005040238
28 0.006273663027793
29 0.007366930895539
30 -0.011930194238073
31 0.19088685351217
32 -0.012323852566706
33 -0.027563795231132
34 -0.014142477558185
35 -0.20540672479622
36 0.19088685351217
37 -0.012323852566706
38 -0.027563795231132
39 0.014142477558185
40 0.20540672479622
 Sym=     10.2
 Ene=       1.1951
 Spin= Alpha
 Occup=    0.000000
1 -0.009399371178822
2 0.024798173322442
3 0.31042937035264
4 -0.54804040832000
5 0.13699784861703
6 -0.052073166309254
7 1.07312183942233
8 0.17197895220992
9 0.055430469138654
10 0.004249146217547
11 -0.002979597207905
12 -0.001269549009642
13 -0.025493723464001
14 0.024005776750356
15 -0.001995232144994
16 0.009399371178822
17 -0.024798173322442
18 -0.31042937035264
19 0.54804040832000
20 0.13699784861703
21 -0.052073166309254
22 -1.07312183942233
23 0.17197895220992
24 0.055430469138654
25 -0.004249146217547
26 0.002979597207905
27 0.001269549009642
28 -0.025493723464001
29 0.024005776750356
30 0.001995232144994
31 -0.46997188082701
32 -0.078076077886176
33 0.037435767774323
34 0.065468012005409
35 0.17299913754007
36 0.46997188082701
37 0.078076077886176
38 -0.037435767774323
39 0.065468012005409
40 0.17299913754007
 Sym=     10.1
 Ene=       1.2895
 Spin= Alpha
 Occup=    0.000000
1 -0.10318529878871
2 -0.28263055938923
3 0.39056741209019
4 -0.049516897747901
5 0.32643958538404
6 -0.51346758737042
7 -0.030496208679561
8 -0.67933574489202
9 0.55013685765336
10 -0.042196986431966
11 -0.019840750226263
12 0.062037736658229
13 0.031475587516228
14 0.018973178210204
15 -0.012709937280041
16 -0.10318529878871
17 -0.28263055938923
18 0.39056741209019
19 -0.049516897747901
20 -0.32643958538404
21 0.51346758737042
22 -0.030496208679561
23 0.67933574489202
24 -0.55013685765336
25 -0.042196986431966
26 -0.019840750226263
27 0.062037736658229
28 -0.031475587516228
29 -0.018973178210204
30 -0.012709937280041
31 0.37319216436559
32 -0.23837697073263
33 0.037820083160376
34 -0.014335143464222
35 0.021691114802987
36 0.37319216436559
37 -0.23837697073263
38 0.037820083160376
39 0.014335143464222
40 -0.021691114802987
 Sym=     11.2
 Ene=       1.4541
 Spin= Alpha
 Occup=    0.000000
1 0.009540855762795
2 0.000989564963246
3 -0.21196819170519
4 -0.13332346312136
5 0.076794376587409
6 0.096984299741751
7 -0.080871598613461
8 -0.095123484673681
9 0.21347769153754
10 0.044073913789626
11 -0.043162438104719
12 -0.000911475684907
13 0.056557636585262
14 -0.005009838745166
15 -0.10206083381568
16 -0.009540855762795
17 -0.000989564963246