[Molden Format]
[Molpro variables]
_NUMVAR=  828.0000000000000    
_AVOGAD= 0.6022136736000000E+24
_BOLTZ= 0.1380658000000000E-22
_CLIGHT=  29979245800.00000    
_EV2006= 0.3674930886769165E-01
_EV= 0.3674932534394180E-01
_ENULL= 0.8854187817000000E-11
_KJOULE= 0.3808798324128737E-03
_KJOULE/MOL= 0.3808798324128737E-03
_CM= 0.4556335267302901E-05
_CM-1= 0.4556335267302901E-05
_DEB2SI= 0.3335641000000000E-29
_AMU2AU=  1822.888390000000    
_KCAL= 0.1593601117815568E-02
_KCAL/MOL= 0.1593601117815568E-02
_KELVIN2006= 0.3166828861084835E-05
_KELVIN= 0.3166814820820034E-05
_JOULE= 0.4359748200000000E-17
_HERTZ2006= 0.1519829850815779E-15
_HERTZ= 0.1519829846011223E-15
_HZ2006= 0.1519829850815779E-15
_HZ= 0.1519829846011223E-15
_JPCAL=  4.184000000000000    
_PLANCK= 0.6626075540000000E-33
_TOA2006= 0.5291772490000000    
_TOA= 0.5291772090000000    
_TOANG2006= 0.5291772490000000    
_TOANG= 0.5291772090000000    
_TORAD= 0.1745329251994330E-01
_TOCM=  219474.6306700000    
_TODEBYE=  2.541580000000000    
_TOEV2006=  27.21139610000000    
_TOE= 0.4803242000000000E-09
_TOEV=  27.21138390000000    
_TOHERTZ2006=  6579683899900000.    
_TOHERTZ=  6579683920700000.    
_TOHZ2006=  6579683899900000.    
_TOHZ=  6579683920700000.    
_TOK2006=  315773.3000000000    
_TOK=  315774.7000000000    
_TOKCAL=  627.5096000000000    
_TOKELVIN2006=  315773.3000000000    
_TOKELVIN=  315774.7000000000    
_TOKJ=  2625.500000000000    
_TOKJOULE=  2625.500000000000    
_TOKG= 0.1660565586000000E-26
_ANG2006=  1.889725988578923    
_ANG=  1.889726131421507    
_ANGSTROM2006=  1.889725988578923    
_ANGSTROM=  1.889726131421507    
_RPAREF=  0.000000000000000    
_RPADISS=  0.000000000000000    
_IGNORE_UNDEF=  2.000000000000000    
_STRICTCHECK=  0.000000000000000    
_SEW_ONEEL=  0.000000000000000    
_CPPDONE=FALSE
_DKROLL_DONE=  0.000000000000000    
_FOCKDONE=TRUE
_GRADONE=FALSE
_HESSDONE=FALSE
_INTDONE=TRUE
_SCFDONE=TRUE
_MODUL_BLOCK=FALSE
_MODUL_CUDA=FALSE
_MODUL_SLATER=FALSE
_MODUL_MRCC=FALSE
_MODUL_NBO6=FALSE
_MODUL_NECI=TRUE
_MODUL_AIMS=TRUE
_MRCC_EXEC=
_FITC_AO_SAVED=FALSE
_FITC_MO_SAVED=FALSE
_SHARED_FS=TRUE
_LSTYP=SEWARD
_INTYP=INTS
_GEOMTYP=ZMAT
_GRADTYP=ALASKA
_DIRECT=FALSE
_DKHO= -1.000000000000000    
_SYNCM=  0.000000000000000    
_BASIS=USERDEF
_ZORIENT=  1.000000000000000    
_NELEC=  42.00000000000000    
!SPIN=  0.000000000000000    
_QSDSTEP=  0.000000000000000    
_QSDIRC=  0.000000000000000    
_PROGRAM=MATROP
_CPUSTEP= 0.2000000000000046E-01
_SYSSTEP= 0.1000000000000068E-01
_WALLSTEP= 0.2100000000000000    
!DFSCF=  0.000000000000000    
!SCSGRD=  0.000000000000000    
_BASINP=  610.0000000000000    
_CPUTOT=  6.870000000000000    
_DFTEXFAC=  1.000000000000000    
_DMX=  0.000000000000000    
_DMY=  0.000000000000000    
_DMZ=  0.000000000000000    
_DMX_SCF=  0.000000000000000    
_DMY_SCF=  0.000000000000000    
_DMZ_SCF=  0.000000000000000    
_EHOMO=-0.3326993314662972    
_ELUMO= 0.1358173769115326    
_ENUC=  202.7384749397557    
_EPS1= -11.26896373705454    
_EPS2=-0.4974966031006273    
_EPS3= -11.26825773344737    
_EPS4=-0.2813559606926175    
_EPS5= -11.26857346302103    
_EPS6=-0.2898398456708571    
_EPS7= -11.26714357900460    
_EPS8= 0.8169692283572461E-01
_GRADEXFAC=  9999.000000000000    
_GRADMETHOD=TRUE
_NMRMETHOD=  0.000000000000000    
!GRID_FREEZE= -1.000000000000000    
_ITERATIONS=  0.000000000000000    
_LASTNELEC=  4.000000000000000    
_LASTSPIN=  2.000000000000000    
_LASTSYM=  1.000000000000000    
_MPP_PROG=  0.000000000000000    
_NPROC_MPP=  1.000000000000000    
_NPROC_MPPX=  1.000000000000000    
_NPROC_SMP=  16.00000000000000    
_NUMSTEP=  0.000000000000000    
_ORBITAL=  2141.200000000000    
_PI=  3.141592653589793    
_SEIG_MIN= 0.3750168419059645E-03
_SEWPROP=TRUE
_STATUS=  0.000000000000000    
_SYSTOT=  4.020000000000000    
_VERSION=  2012001.000000000    
_WALLTOT=  61.22000000000000    
_DATE=24-Jan-19
_LASTORB=MCSCF
_MACHINE=Linux-4.9.0-8-amd64/nympha18.meta.zcu.cz(x86_64) (16 PROC) 64 bit serial version
_OUTPUT=/auto/brno2/home/masiz4am/git/UKRmol-in/tests/suite/D2h_scattering_CC/molpro.xml
_PGROUP=D2h
_TIME=16:47:05
_LIBMOL=/afs/ics.muni.cz/software/molpro-2012.1/molprop_2012_1_Linux_x86_64_i8/lib/
!VIBCNT=  0.000000000000000    
!RGHFCNT=  0.000000000000000    
!SURFREC=  0.000000000000000    
!POLYREC=  0.000000000000000    
!DIPREC=  0.000000000000000    
!VSCFREC=  0.000000000000000    
!VCIREC=  0.000000000000000    
!PVCIREC=  0.000000000000000    
!VMP2REC=  0.000000000000000    
!VMCSCFREC=  0.000000000000000    
!VMRCIREC=  0.000000000000000    
!VIBINFO=  0.000000000000000    
!GAREC=  0.000000000000000    
!SCFORB=  21002.00000000000    
!MCORB=  21412.00000000000    
!NEWMOL= -1.000000000000000    
!NEWSYM= -1.000000000000000    
_SLFILES=slscratch
_NGSSTO=  9.000000000000000    
_SIN=SIN
_COS=COS
_TAN=TAN
_ACOS=ACOS
_ASIN=ASIN
_ATAN=ATAN
_COSH=COSH
_SINH=SINH
_TANH=TANH
_ABS=ABS
_MOD=MOD
_ERF=ERF
_REFC=REFC
_ERFC=ERFC
_HYPOT=HYPOT
_J0=J0
_J1=J1
_JN=JN
_GAMMA=GAMMA
_LGAMMA=LGAMMA
_Y0=Y0
_Y1=Y1
_YN=YN
_EXP=EXP
_LOG=LOG
_LOG10=LOG10
_SQRT=SQRT
_INT=INT
_NINT=NINT
_MAX=MAX
_MIN=MIN
_COSMO=  0.000000000000000    
_COSMOIT=  0.000000000000000    
_COSMOES=  0.000000000000000    
_COSMOEDS=  0.000000000000000    
_COSMOEC=  0.000000000000000    
_COSMOEDCORR=  0.000000000000000    
_FEPSI=  1.000000000000000    
_SL_IsMM=  0.000000000000000    
_SL_NSYM=  8.000000000000000    
_SL_System_BitSw=  0.000000000000000    
_SL_Unique_atoms=  0.000000000000000    
_SL_GRAD=  0.000000000000000    
_SL_MAXUPD_Hess=  5.000000000000000    
_SL_N_PRINT_COD=  5.000000000000000    
_SL_PRINT_CODES=  0.000000000000000    
_SL_BasType=  0.000000000000000    
_SL_Energy_Pred=  0.000000000000000    
_SL_New_Coords=  0.000000000000000    
_SL_Total_Nuclea=  0.000000000000000    
_SL_Highest_Mltp=  0.000000000000000    
_SL_Ref_Geom=  0.000000000000000    
_SL_Symmetry_ope=  1.000000000000000    
_SL_agrad=  0.000000000000000    
_SL_GrdMax=  0.000000000000000    
_SL_GrdNorm=  0.000000000000000    
_SL_GrdRMS=  0.000000000000000    
!LATTICE= -1.000000000000000    
!NEWLATTICE=  0.000000000000000    
!LATGRAD_VAR=FALSE
!SEW_LATTICE=  1.000000000000000    
!LOCAL=  0.000000000000000    
!SAVEDOM= -1.000000000000000    
!RESTDOM= -1.000000000000000    
!SAVEDOM_HF= -1.000000000000000    
!RESTDOM_HF= -1.000000000000000    
!HESSREC=  0.000000000000000    
!FREQREC=  0.000000000000000    
!NMODREC=  0.000000000000000    
!GTASKS=  0.000000000000000    
!HTASKS=  0.000000000000000    
!THRCHG= 0.1000000000000000    
!DEBUG= -1.000000000000000    
!CFIT_CPHF=  0.000000000000000    
!RDOMAUX_CPHF=  3.000000000000000    
!THRAO_CPHF= 0.1000000000000000E-09
!THRMO_CPHF= 0.1000000000000000E-08
!THROV_CPHF= 0.1000000000000000E-11
!THRSW_CPHF= 0.1000000000000000E-09
!THRPROD_CPHF= 0.1000000000000000E-08
!THRAOPR_CPHF= 0.1000000000000000E-11
!CFIT_SCFGRD=  0.000000000000000    
!RDOMAUX_SCFGRD=  5.000000000000000    
!THRAO_SCFGRD= 0.1000000000000000E-09
!THRMO_SCFGRD= 0.1000000000000000E-08
!THROV_SCFGRD= 0.1000000000000000E-11
!THRSW_SCFGRD= 0.1000000000000000E-09
!THRPROD_SCFGRD= 0.1000000000000000E-08
!THRAOPR_SCFGRD= 0.1000000000000000E-11
!LOCFIT_SCF=  0.000000000000000    
!LOCFIT_MP2= -1.000000000000000    
_RIDOM=  0.000000000000000    
!CC2_METHOD=  0.000000000000000    
_BASIS2006=FALSE
_SVDDEL= -1.000000000000000    
_SVDDELA= -1.000000000000000    
_SVDDELP= -1.000000000000000    
_SVDDELF= -1.000000000000000    
_SVDDELS= -1.000000000000000    
_SVDDEL_ABS= -1.000000000000000    
_SVDDELA_ABS= -1.000000000000000    
_SVDDELP_ABS= -1.000000000000000    
_SVDDELF_ABS= -1.000000000000000    
_SVDDELS_ABS= -1.000000000000000    
_MAXBASIS=  0.000000000000000    
!OPT_CONICAL=  0.000000000000000    
!CLEARSP_JGRID=  0.000000000000000    
_4EXT_NDISKS=  1.000000000000000    
!ZMP=  0.000000000000000    
_MAXIT_ZMP=  500.0000000000000    
_MAXDIS_ZMP=  100.0000000000000    
_ACCU_ZMP=  14.00000000000000    
_SHIFTA_ZMP= -100.0000000000000    
!EMBEDFLAG=  1.000000000000000    
!EMBED=FALSE
!EMBED_F12=FALSE
!EMBEDNUC=  0.000000000000000    
_EMBEDENERGY=  0.000000000000000    
_KSPACETIME=  0.000000000000000    
_RSPACETIME=  0.000000000000000    
!EMBED_DFC=FALSE
!NUM_VOIDS=  0.000000000000000    
_IBODY=  0.000000000000000    
_EMBE_TOTAL=  0.000000000000000    
_EMBE_HF=  0.000000000000000    
_EMBE_CORR=  0.000000000000000    
!EDFT=  0.000000000000000    
_IFASTLATGRAD=  0.000000000000000    
_SINDEX=  0.000000000000000    
M_NAME=CASSCF(4,9)
M_CLOSED=  6.000000000000000    
M_OCC=  8.000000000000000    
GX1=  0.000000000000000    
GY1=  0.000000000000000    
GZ1=  2.645994329000000    
GX2=  0.000000000000000    
GY2= -2.291481734000000    
GZ2=  1.322997165000000    
GX3=  0.000000000000000    
GY3=  0.000000000000000    
GZ3=  4.700693397000000    
GX4=  0.000000000000000    
GY4= -4.070847725000000    
GZ4=  2.350252212000000    
GX5=  0.000000000000000    
GY5= -2.291481734000000    
GZ5= -1.322997165000000    
GX6=  0.000000000000000    
GY6=  0.000000000000000    
GZ6= -2.645994329000000    
GX7=  0.000000000000000    
GY7= -4.070847725000000    
GZ7= -2.350252212000000    
GX8=  0.000000000000000    
GY8=  0.000000000000000    
GZ8= -4.700693397000000    
GX9=  0.000000000000000    
GY9=  2.291481734000000    
GZ9= -1.322997165000000    
GX10=  0.000000000000000    
GY10=  2.291481734000000    
GZ10=  1.322997165000000    
GX11=  0.000000000000000    
GY11=  4.070847725000000    
GZ11= -2.350252212000000    
GX12=  0.000000000000000    
GY12=  4.070847725000000    
GZ12=  2.350252212000000    
_TRDMX=  0.000000000000000    
_TRDMY=  0.000000000000000    
_TRDMZ=  0.000000000000000    
_QMXX= -7.904622804872247    
_TRQMXX=-0.2424059620424254    
_QMYY=  4.038938022765535    
_TRQMYY= 0.1219685583119032    
_QMZZ=  3.865684782106698    
_TRQMZZ= 0.1204374037305222    
_QMXY=  0.000000000000000    
_TRQMXY=  0.000000000000000    
_QMXZ=  0.000000000000000    
_TRQMXZ=  0.000000000000000    
_QMYZ=  0.000000000000000    
_TRQMYZ=  0.000000000000000    
_QMRR= -73.82164581138613    
_TRQMRR= 0.5364968884411341    
[Atoms] Angs
C     1    6         0.0000000000        0.0000000000        1.4001998941
C     2    6         0.0000000000       -1.2125999085        0.7000999473
H     3    1         0.0000000000        0.0000000000        2.4874998122
H     4    1         0.0000000000       -2.1541998374        1.2436999060
C     5    6         0.0000000000       -1.2125999085       -0.7000999473
C     6    6         0.0000000000        0.0000000000       -1.4001998941
H     7    1         0.0000000000       -2.1541998374       -1.2436999060
H     8    1         0.0000000000        0.0000000000       -2.4874998122
C     9    6         0.0000000000        1.2125999085       -0.7000999473
C    10    6         0.0000000000        1.2125999085        0.7000999473
H    11    1         0.0000000000        2.1541998374       -1.2436999060
H    12    1         0.0000000000        2.1541998374        1.2436999060
[GTO]
  1 0
 s    8  1.00
  0.6665000000D+04  0.6915839628D-03
  0.1000000000D+04  0.5325796153D-02
  0.2280000000D+03  0.2706072104D-01
  0.6471000000D+02  0.1016568461D+00
  0.2106000000D+02  0.2745748236D+00
  0.7495000000D+01  0.4482943189D+00
  0.2797000000D+01  0.2849026107D+00
  0.5215000000D+00  0.1519485921D-01
 s    8  1.00
  0.6665000000D+04 -0.2932696527D-03
  0.1000000000D+04 -0.2318035474D-02
  0.2280000000D+03 -0.1149978604D-01
  0.6471000000D+02 -0.4682672701D-01
  0.2106000000D+02 -0.1284661688D+00
  0.7495000000D+01 -0.3012662725D+00
  0.2797000000D+01 -0.2556307023D+00
  0.5215000000D+00  0.1093793361D+01
 s    1  1.00
  0.1596000000D+00  0.1000000000D+01
 p    3  1.00
  0.9439000000D+01  0.5697925159D-01
  0.2002000000D+01  0.3132072115D+00
  0.5456000000D+00  0.7603767417D+00
 p    1  1.00
  0.1517000000D+00  0.1000000000D+01
 d    1  1.00
  0.5500000000D+00  0.1000000000D+01
  
  6 0
 s    8  1.00
  0.6665000000D+04  0.6915839628D-03
  0.1000000000D+04  0.5325796153D-02
  0.2280000000D+03  0.2706072104D-01
  0.6471000000D+02  0.1016568461D+00
  0.2106000000D+02  0.2745748236D+00
  0.7495000000D+01  0.4482943189D+00
  0.2797000000D+01  0.2849026107D+00
  0.5215000000D+00  0.1519485921D-01
 s    8  1.00
  0.6665000000D+04 -0.2932696527D-03
  0.1000000000D+04 -0.2318035474D-02
  0.2280000000D+03 -0.1149978604D-01
  0.6471000000D+02 -0.4682672701D-01
  0.2106000000D+02 -0.1284661688D+00
  0.7495000000D+01 -0.3012662725D+00
  0.2797000000D+01 -0.2556307023D+00
  0.5215000000D+00  0.1093793361D+01
 s    1  1.00
  0.1596000000D+00  0.1000000000D+01
 p    3  1.00
  0.9439000000D+01  0.5697925159D-01
  0.2002000000D+01  0.3132072115D+00
  0.5456000000D+00  0.7603767417D+00
 p    1  1.00
  0.1517000000D+00  0.1000000000D+01
 d    1  1.00
  0.5500000000D+00  0.1000000000D+01
  
  2 0
 s    8  1.00
  0.6665000000D+04  0.6915839628D-03
  0.1000000000D+04  0.5325796153D-02
  0.2280000000D+03  0.2706072104D-01
  0.6471000000D+02  0.1016568461D+00
  0.2106000000D+02  0.2745748236D+00
  0.7495000000D+01  0.4482943189D+00
  0.2797000000D+01  0.2849026107D+00
  0.5215000000D+00  0.1519485921D-01
 s    8  1.00
  0.6665000000D+04 -0.2932696527D-03
  0.1000000000D+04 -0.2318035474D-02
  0.2280000000D+03 -0.1149978604D-01
  0.6471000000D+02 -0.4682672701D-01
  0.2106000000D+02 -0.1284661688D+00
  0.7495000000D+01 -0.3012662725D+00
  0.2797000000D+01 -0.2556307023D+00
  0.5215000000D+00  0.1093793361D+01
 s    1  1.00
  0.1596000000D+00  0.1000000000D+01
 p    3  1.00
  0.9439000000D+01  0.5697925159D-01
  0.2002000000D+01  0.3132072115D+00
  0.5456000000D+00  0.7603767417D+00
 p    1  1.00
  0.1517000000D+00  0.1000000000D+01
 d    1  1.00
  0.5500000000D+00  0.1000000000D+01
  
  5 0
 s    8  1.00
  0.6665000000D+04  0.6915839628D-03
  0.1000000000D+04  0.5325796153D-02
  0.2280000000D+03  0.2706072104D-01
  0.6471000000D+02  0.1016568461D+00
  0.2106000000D+02  0.2745748236D+00
  0.7495000000D+01  0.4482943189D+00
  0.2797000000D+01  0.2849026107D+00
  0.5215000000D+00  0.1519485921D-01
 s    8  1.00
  0.6665000000D+04 -0.2932696527D-03
  0.1000000000D+04 -0.2318035474D-02
  0.2280000000D+03 -0.1149978604D-01
  0.6471000000D+02 -0.4682672701D-01
  0.2106000000D+02 -0.1284661688D+00
  0.7495000000D+01 -0.3012662725D+00
  0.2797000000D+01 -0.2556307023D+00
  0.5215000000D+00  0.1093793361D+01
 s    1  1.00
  0.1596000000D+00  0.1000000000D+01
 p    3  1.00
  0.9439000000D+01  0.5697925159D-01
  0.2002000000D+01  0.3132072115D+00
  0.5456000000D+00  0.7603767417D+00
 p    1  1.00
  0.1517000000D+00  0.1000000000D+01
 d    1  1.00
  0.5500000000D+00  0.1000000000D+01
  
  9 0
 s    8  1.00
  0.6665000000D+04  0.6915839628D-03
  0.1000000000D+04  0.5325796153D-02
  0.2280000000D+03  0.2706072104D-01
  0.6471000000D+02  0.1016568461D+00
  0.2106000000D+02  0.2745748236D+00
  0.7495000000D+01  0.4482943189D+00
  0.2797000000D+01  0.2849026107D+00
  0.5215000000D+00  0.1519485921D-01
 s    8  1.00
  0.6665000000D+04 -0.2932696527D-03
  0.1000000000D+04 -0.2318035474D-02
  0.2280000000D+03 -0.1149978604D-01
  0.6471000000D+02 -0.4682672701D-01
  0.2106000000D+02 -0.1284661688D+00
  0.7495000000D+01 -0.3012662725D+00
  0.2797000000D+01 -0.2556307023D+00
  0.5215000000D+00  0.1093793361D+01
 s    1  1.00
  0.1596000000D+00  0.1000000000D+01
 p    3  1.00
  0.9439000000D+01  0.5697925159D-01
  0.2002000000D+01  0.3132072115D+00
  0.5456000000D+00  0.7603767417D+00
 p    1  1.00
  0.1517000000D+00  0.1000000000D+01
 d    1  1.00
  0.5500000000D+00  0.1000000000D+01
  
 10 0
 s    8  1.00
  0.6665000000D+04  0.6915839628D-03
  0.1000000000D+04  0.5325796153D-02
  0.2280000000D+03  0.2706072104D-01
  0.6471000000D+02  0.1016568461D+00
  0.2106000000D+02  0.2745748236D+00
  0.7495000000D+01  0.4482943189D+00
  0.2797000000D+01  0.2849026107D+00
  0.5215000000D+00  0.1519485921D-01
 s    8  1.00
  0.6665000000D+04 -0.2932696527D-03
  0.1000000000D+04 -0.2318035474D-02
  0.2280000000D+03 -0.1149978604D-01
  0.6471000000D+02 -0.4682672701D-01
  0.2106000000D+02 -0.1284661688D+00
  0.7495000000D+01 -0.3012662725D+00
  0.2797000000D+01 -0.2556307023D+00
  0.5215000000D+00  0.1093793361D+01
 s    1  1.00
  0.1596000000D+00  0.1000000000D+01
 p    3  1.00
  0.9439000000D+01  0.5697925159D-01
  0.2002000000D+01  0.3132072115D+00
  0.5456000000D+00  0.7603767417D+00
 p    1  1.00
  0.1517000000D+00  0.1000000000D+01
 d    1  1.00
  0.5500000000D+00  0.1000000000D+01
  
  3 0
 s    3  1.00
  0.1301000000D+02  0.3349872639D-01
  0.1962000000D+01  0.2348008012D+00
  0.4446000000D+00  0.8136829579D+00
 s    1  1.00
  0.1220000000D+00  0.1000000000D+01
 p    1  1.00
  0.7270000000D+00  0.1000000000D+01
  
  8 0
 s    3  1.00
  0.1301000000D+02  0.3349872639D-01
  0.1962000000D+01  0.2348008012D+00
  0.4446000000D+00  0.8136829579D+00
 s    1  1.00
  0.1220000000D+00  0.1000000000D+01
 p    1  1.00
  0.7270000000D+00  0.1000000000D+01
  
  4 0
 s    3  1.00
  0.1301000000D+02  0.3349872639D-01
  0.1962000000D+01  0.2348008012D+00
  0.4446000000D+00  0.8136829579D+00
 s    1  1.00
  0.1220000000D+00  0.1000000000D+01
 p    1  1.00
  0.7270000000D+00  0.1000000000D+01
  
  7 0
 s    3  1.00
  0.1301000000D+02  0.3349872639D-01
  0.1962000000D+01  0.2348008012D+00
  0.4446000000D+00  0.8136829579D+00
 s    1  1.00
  0.1220000000D+00  0.1000000000D+01
 p    1  1.00
  0.7270000000D+00  0.1000000000D+01
  
 11 0
 s    3  1.00
  0.1301000000D+02  0.3349872639D-01
  0.1962000000D+01  0.2348008012D+00
  0.4446000000D+00  0.8136829579D+00
 s    1  1.00
  0.1220000000D+00  0.1000000000D+01
 p    1  1.00
  0.7270000000D+00  0.1000000000D+01
  
 12 0
 s    3  1.00
  0.1301000000D+02  0.3349872639D-01
  0.1962000000D+01  0.2348008012D+00
  0.4446000000D+00  0.8136829579D+00
 s    1  1.00
  0.1220000000D+00  0.1000000000D+01
 p    1  1.00
  0.7270000000D+00  0.1000000000D+01
 
 
[MO]
 Sym=      1.1
 Ene=     -11.2690
 Spin= Alpha
 Occup=    2.000000
1 0.48204996191565
2 0.001751979851512
3 -0.002673163188810
4 0.0
5 0.0
6 -0.000009553129899
7 0.0
8 0.0
9 -0.000006501789952
10 -0.000137011385780
11 -0.000008416915996
12 0.000145428301776
13 0.0
14 0.0
15 0.0
16 0.48204996191565
17 0.001751979851512
18 -0.002673163188810
19 0.0
20 0.0
21 0.000009553129899
22 0.0
23 0.0
24 0.000006501789952
25 -0.000137011385780
26 -0.000008416915996
27 0.000145428301776
28 0.0
29 0.0
30 0.0
31 0.36674675704402
32 0.001218210158290
33 -0.001401250012621
34 0.0
35 -0.000005165485758
36 -0.000011931614397
37 0.0
38 0.000298932784981
39 -0.000080778446717
40 -0.000035548913077
41 0.000041388796685
42 -0.000005839883608
43 0.0
44 0.0
45 -0.000082167168927
46 0.36674675704402
47 0.001218210158290
48 -0.001401250012621
49 0.0
50 -0.000005165485758
51 0.000011931614397
52 0.0
53 0.000298932784981
54 0.000080778446717
55 -0.000035548913077
56 0.000041388796685
57 -0.000005839883608
58 0.0
59 0.0
60 0.000082167168927
61 0.36674675704402
62 0.001218210158290
63 -0.001401250012621
64 0.0
65 0.000005165485758
66 0.000011931614397
67 0.0
68 -0.000298932784981
69 0.000080778446717
70 -0.000035548913077
71 0.000041388796685
72 -0.000005839883608
73 0.0
74 0.0
75 -0.000082167168927
76 0.36674675704402
77 0.001218210158290
78 -0.001401250012621
79 0.0
80 0.000005165485758
81 -0.000011931614397
82 0.0
83 -0.000298932784981
84 -0.000080778446717
85 -0.000035548913077
86 0.000041388796685
87 -0.000005839883608
88 0.0
89 0.0
90 0.000082167168927
91 -0.000147087324979
92 0.000695861148293
93 0.0
94 0.0
95 0.000146752904169
96 -0.000147087324979
97 0.000695861148293
98 0.0
99 0.0
100 -0.000146752904169
101 -0.000084238969506
102 0.000642445212710
103 0.0
104 -0.000064961454862
105 0.000035954537551
106 -0.000084238969506
107 0.000642445212710
108 0.0
109 -0.000064961454862
110 -0.000035954537551
111 -0.000084238969506
112 0.000642445212710
113 0.0
114 0.000064961454862
115 -0.000035954537551
116 -0.000084238969506
117 0.000642445212710
118 0.0
119 0.000064961454862
120 0.000035954537551
 Sym=      1.5
 Ene=     -11.2686
 Spin= Alpha
 Occup=    2.000000
1 0.61965707140004
2 0.002702829635053
3 -0.005352066553480
4 0.0
5 0.0
6 -0.000120541821686
7 0.0
8 0.0
9 0.000786690153670
10 -0.000136678427561
11 0.000008667335498
12 0.000128011092063
13 0.0
14 0.0
15 0.0
16 -0.61965707140004
17 -0.002702829635053
18 0.005352066553480
19 0.0
20 0.0
21 -0.000120541821686
22 0.0
23 0.0
24 0.000786690153670
25 0.000136678427561
26 -0.000008667335498
27 -0.000128011092063
28 0.0
29 0.0
30 0.0
31 0.24289991410991
32 0.001006803971318
33 -0.001418662986974
34 0.0
35 0.000014381640502
36 -0.000083925885185
37 0.0
38 0.000647269182443
39 0.001017863959859
40 0.000021895363029
41 -0.000044237994056
42 0.000022342631027
43 0.0
44 0.0
45 -0.000047549630131
46 -0.24289991410991
47 -0.001006803971318
48 0.001418662986974
49 0.0
50 -0.000014381640502
51 -0.000083925885185
52 0.0
53 -0.000647269182443
54 0.001017863959859
55 -0.000021895363029
56 0.000044237994056
57 -0.000022342631027
58 0.0
59 0.0
60 -0.000047549630131
61 -0.24289991410991
62 -0.001006803971318
63 0.001418662986974
64 0.0
65 0.000014381640502
66 -0.000083925885185
67 0.0
68 0.000647269182443
69 0.001017863959859
70 -0.000021895363029
71 0.000044237994056
72 -0.000022342631027
73 0.0
74 0.0
75 0.000047549630131
76 0.24289991410991
77 0.001006803971318
78 -0.001418662986974
79 0.0
80 -0.000014381640502
81 -0.000083925885185
82 0.0
83 -0.000647269182443
84 0.001017863959859
85 0.000021895363029
86 -0.000044237994056
87 0.000022342631027
88 0.0
89 0.0
90 0.000047549630131
91 -0.000170033339020
92 0.000528896046737
93 0.0
94 0.0
95 0.000220260696972
96 0.000170033339020
97 -0.000528896046737
98 0.0
99 0.0
100 0.000220260696972
101 -0.000027604808857
102 0.000294521126283
103 0.0
104 -0.000058320515512
105 0.000017406749924
106 0.000027604808857
107 -0.000294521126283
108 0.0
109 0.000058320515512
110 0.000017406749924
111 0.000027604808857
112 -0.000294521126283
113 0.0
114 -0.000058320515512
115 0.000017406749924
116 -0.000027604808857
117 0.000294521126283
118 0.0
119 0.000058320515512
120 0.000017406749924
 Sym=      1.3
 Ene=     -11.2683
 Spin= Alpha
 Occup=    2.000000
1 0.0
2 0.0
3 0.0
4 0.0
5 0.000072042313633
6 0.0
7 0.0
8 -0.001389754104178
9 0.0
10 0.0
11 0.0
12 0.0
13 0.0
14 0.0
15 -0.000067558771499
16 0.0
17 0.0
18 0.0
19 0.0
20 0.000072042313633
21 0.0
22 0.0
23 -0.001389754104178
24 0.0
25 0.0
26 0.0
27 0.0
28 0.0
29 0.0
30 0.000067558771499
31 0.50098464129231
32 0.002160015811860
33 -0.003927202281282
34 0.0
35 0.000115746583221
36 -0.000030654656568
37 0.0
38 -0.000730212871396
39 -0.000375987006087
40 -0.000066520814979
41 0.000082244912607
42 -0.000015724097628
43 0.0
44 0.0
45 -0.000028324844875
46 0.50098464129231
47 0.002160015811860
48 -0.003927202281282
49 0.0
50 0.000115746583221
51 0.000030654656568
52 0.0
53 -0.000730212871396
54 0.000375987006087
55 -0.000066520814979
56 0.000082244912607
57 -0.000015724097628
58 0.0
59 0.0
60 0.000028324844875
61 -0.50098464129231
62 -0.002160015811860
63 0.003927202281282
64 0.0
65 0.000115746583221
66 -0.000030654656568
67 0.0
68 -0.000730212871396
69 -0.000375987006087
70 0.000066520814979
71 -0.000082244912607
72 0.000015724097628
73 0.0
74 0.0
75 0.000028324844875
76 -0.50098464129231
77 -0.002160015811860
78 0.003927202281282
79 0.0
80 0.000115746583221
81 0.000030654656568
82 0.0
83 -0.000730212871396
84 0.000375987006087
85 0.000066520814979
86 -0.000082244912607
87 0.000015724097628
88 0.0
89 0.0
90 -0.000028324844875
91 0.0
92 0.0
93 0.0
94 0.000017124291383
95 0.0
96 0.0
97 0.0
98 0.0
99 0.000017124291383
100 0.0
101 -0.000113098651778
102 0.000468392610330
103 0.0
104 -0.000132124473195
105 0.000085628941582
106 -0.000113098651778
107 0.000468392610330
108 0.0
109 -0.000132124473195
110 -0.000085628941582
111 0.000113098651778
112 -0.000468392610330
113 0.0
114 -0.000132124473195
115 0.000085628941582
116 0.000113098651778
117 -0.000468392610330
118 0.0
119 -0.000132124473195
120 -0.000085628941582
 Sym=      2.1
 Ene=     -11.2674
 Spin= Alpha
 Occup=    2.000000
1 0.51933441729627
2 0.002519128863543
3 -0.006285288841037
4 0.0
5 0.0
6 -0.000120164802064
7 0.0
8 0.0
9 0.001699479190702
10 -0.000493780175752
11 0.000240935487683
12 0.000252844688068
13 0.0
14 0.0
15 0.0
16 0.51933441729627
17 0.002519128863543
18 -0.006285288841037
19 0.0
20 0.0
21 0.000120164802064
22 0.0
23 0.0
24 -0.001699479190702
25 -0.000493780175752
26 0.000240935487683
27 0.000252844688068
28 0.0
29 0.0
30 0.0
31 -0.34111441984317
32 -0.001540767602146
33 0.003509955745991
34 0.0
35 -0.000090981251111
36 -0.000016263659807
37 0.0
38 0.000992170048096
39 0.000093836321788
40 0.000261290495369
41 -0.000248701512476
42 -0.000012588982894
43 0.0
44 0.0
45 -0.000055528804461
46 -0.34111441984317
47 -0.001540767602146
48 0.003509955745991
49 0.0
50 -0.000090981251111
51 0.000016263659807
52 0.0
53 0.000992170048096
54 -0.000093836321788
55 0.000261290495369
56 -0.000248701512476
57 -0.000012588982894
58 0.0
59 0.0
60 0.000055528804461
61 -0.34111441984317
62 -0.001540767602146
63 0.003509955745991
64 0.0
65 0.000090981251111
66 0.000016263659807
67 0.0
68 -0.000992170048096
69 -0.000093836321788
70 0.000261290495369
71 -0.000248701512476
72 -0.000012588982894
73 0.0
74 0.0
75 -0.000055528804461
76 -0.34111441984317
77 -0.001540767602146
78 0.003509955745991
79 0.0
80 0.000090981251111
81 -0.000016263659807
82 0.0
83 -0.000992170048096
84 0.000093836321788
85 0.000261290495369
86 -0.000248701512476
87 -0.000012588982894
88 0.0
89 0.0
90 0.000055528804461
91 -0.000294846617137
92 0.000104267970566
93 0.0
94 0.0
95 0.000318678597355
96 -0.000294846617137
97 0.000104267970566
98 0.0
99 0.0
100 -0.000318678597355
101 0.000165361715046
102 -0.000182837079960
103 0.0
104 0.000145025548169
105 -0.000098850330990
106 0.000165361715046
107 -0.000182837079960
108 0.0
109 0.000145025548169
110 0.000098850330990
111 0.000165361715046
112 -0.000182837079960
113 0.0
114 -0.000145025548169
115 0.000098850330990
116 0.000165361715046
117 -0.000182837079960
118 0.0
119 -0.000145025548169
120 -0.000098850330990
 Sym=      1.7
 Ene=     -11.2671
 Spin= Alpha
 Occup=    2.000000
1 0.0
2 0.0
3 0.0
4 0.0
5 0.000075274336253
6 0.0
7 0.0
8 -0.000667938546154
9 0.0
10 0.0
11 0.0
12 0.0
13 0.0
14 0.0
15 -0.000169372943326
16 0.0
17 0.0
18 0.0
19 0.0
20 -0.000075274336253
21 0.0
22 0.0
23 0.000667938546154
24 0.0
25 0.0
26 0.0
27 0.0
28 0.0
29 0.0
30 -0.000169372943326
31 0.50122093289123
32 0.002367499088537
33 -0.005681942350686
34 0.0
35 0.000084560894156
36 -0.000104147397728
37 0.0
38 -0.001090343956897
39 0.001018469103585
40 -0.000442666096530
41 0.000157952583600
42 0.000284713512930
43 0.0
44 0.0
45 -0.000053129035373
46 -0.50122093289123
47 -0.002367499088537
48 0.005681942350686
49 0.0
50 -0.000084560894156
51 -0.000104147397728
52 0.0
53 0.001090343956897
54 0.001018469103585
55 0.000442666096530
56 -0.000157952583600
57 -0.000284713512930
58 0.0
59 0.0
60 -0.000053129035373
61 0.50122093289123
62 0.002367499088537
63 -0.005681942350686
64 0.0
65 -0.000084560894156
66 0.000104147397728
67 0.0
68 0.001090343956897
69 -0.001018469103585
70 -0.000442666096530
71 0.000157952583600
72 0.000284713512930
73 0.0
74 0.0
75 -0.000053129035373
76 -0.50122093289123
77 -0.002367499088537
78 0.005681942350686
79 0.0
80 0.000084560894156
81 0.000104147397728
82 0.0
83 -0.001090343956897
84 -0.001018469103585
85 0.000442666096530
86 -0.000157952583600
87 -0.000284713512930
88 0.0
89 0.0
90 -0.000053129035373
91 0.0
92 0.0
93 0.0
94 0.000014513709422
95 0.0
96 0.0
97 0.0
98 0.0
99 -0.000014513709422
100 0.0
101 -0.000263053358006
102 0.000168229541536
103 0.0
104 -0.000249063305243
105 0.000134292485327
106 0.000263053358006
107 -0.000168229541536
108 0.0
109 0.000249063305243
110 0.000134292485327
111 -0.000263053358006
112 0.000168229541536
113 0.0
114 0.000249063305243
115 -0.000134292485327
116 0.000263053358006
117 -0.000168229541536
118 0.0
119 -0.000249063305243
120 -0.000134292485327
 Sym=      2.5
 Ene=     -11.2667
 Spin= Alpha
 Occup=    2.000000
1 -0.34390891930701
2 -0.001837986236431
3 0.007024432585743
4 0.0
5 0.0
6 0.000090405335542
7 0.0
8 0.0
9 -0.002617810643509
10 0.000559947872817
11 -0.000242789690548
12 -0.000317158182269
13 0.0
14 0.0
15 0.0
16 0.34390891930701
17 0.001837986236431
18 -0.007024432585743
19 0.0
20 0.0
21 0.000090405335542
22 0.0
23 0.0
24 -0.002617810643509
25 -0.000559947872817
26 0.000242789690548
27 0.000317158182269
28 0.0
29 0.0
30 0.0
31 0.43848267196396
32 0.002251750549949
33 -0.007753150077968
34 0.0
35 0.000102530763228
36 -0.000077671959526
37 0.0
38 -0.002281665222590
39 0.001463167524170
40 -0.000573072848999
41 0.000299092118491
42 0.000273980730508
43 0.0
44 0.0
45 -0.000048067658908
46 -0.43848267196396
47 -0.002251750549949
48 0.007753150077968
49 0.0
50 -0.000102530763228
51 -0.000077671959526
52 0.0
53 0.002281665222590
54 0.001463167524170
55 0.000573072848999
56 -0.000299092118491
57 -0.000273980730508
58 0.0
59 0.0
60 -0.000048067658908
61 -0.43848267196396
62 -0.002251750549949
63 0.007753150077968
64 0.0
65 0.000102530763228
66 -0.000077671959526
67 0.0
68 -0.002281665222590
69 0.001463167524170
70 0.000573072848999
71 -0.000299092118491
72 -0.000273980730508
73 0.0
74 0.0
75 0.000048067658908
76 0.43848267196396
77 0.002251750549949
78 -0.007753150077968
79 0.0
80 -0.000102530763228
81 -0.000077671959526
82 0.0
83 0.002281665222590
84 0.001463167524170
85 -0.000573072848999
86 0.000299092118491
87 0.000273980730508
88 0.0
89 0.0
90 0.000048067658908
91 0.000316972703987
92 0.000249576568751
93 0.0
94 0.0
95 -0.000268514086153
96 -0.000316972703987
97 -0.000249576568751
98 0.0
99 0.0
100 -0.000268514086153
101 -0.000333990541555
102 -0.000168659891887
103 0.0
104 -0.000254638011014
105 0.000144520996541
106 0.000333990541555
107 0.000168659891887
108 0.0
109 0.000254638011014
110 0.000144520996541
111 0.000333990541555
112 0.000168659891887
113 0.0