[Molden Format]
[Molpro variables]
_NUMVAR=  790.0000000000000    
_AVOGAD= 0.6022136736000000E+24
_BOLTZ= 0.1380658000000000E-22
_CLIGHT=  29979245800.00000    
_EV2006= 0.3674930886769165E-01
_EV= 0.3674932534394180E-01
_ENULL= 0.8854187817000000E-11
_KJOULE= 0.3808798324128737E-03
_KJOULE/MOL= 0.3808798324128737E-03
_CM= 0.4556335267302901E-05
_CM-1= 0.4556335267302901E-05
_DEB2SI= 0.3335641000000000E-29
_AMU2AU=  1822.888390000000    
_KCAL= 0.1593601117815568E-02
_KCAL/MOL= 0.1593601117815568E-02
_KELVIN2006= 0.3166828861084835E-05
_KELVIN= 0.3166814820820034E-05
_JOULE= 0.4359748200000000E-17
_HERTZ2006= 0.1519829850815779E-15
_HERTZ= 0.1519829846011223E-15
_HZ2006= 0.1519829850815779E-15
_HZ= 0.1519829846011223E-15
_JPCAL=  4.184000000000000    
_PLANCK= 0.6626075540000000E-33
_TOA2006= 0.5291772490000000    
_TOA= 0.5291772090000000    
_TOANG2006= 0.5291772490000000    
_TOANG= 0.5291772090000000    
_TORAD= 0.1745329251994330E-01
_TOCM=  219474.6306700000    
_TODEBYE=  2.541580000000000    
_TOEV2006=  27.21139610000000    
_TOE= 0.4803242000000000E-09
_TOEV=  27.21138390000000    
_TOHERTZ2006=  6579683899900000.    
_TOHERTZ=  6579683920700000.    
_TOHZ2006=  6579683899900000.    
_TOHZ=  6579683920700000.    
_TOK2006=  315773.3000000000    
_TOK=  315774.7000000000    
_TOKCAL=  627.5096000000000    
_TOKELVIN2006=  315773.3000000000    
_TOKELVIN=  315774.7000000000    
_TOKJ=  2625.500000000000    
_TOKJOULE=  2625.500000000000    
_TOKG= 0.1660565586000000E-26
_ANG2006=  1.889725988578923    
_ANG=  1.889726131421507    
_ANGSTROM2006=  1.889725988578923    
_ANGSTROM=  1.889726131421507    
_RPAREF=  0.000000000000000    
_RPADISS=  0.000000000000000    
_IGNORE_UNDEF=  2.000000000000000    
_STRICTCHECK=  0.000000000000000    
_SEW_ONEEL=  0.000000000000000    
_CPPDONE=FALSE
_DKROLL_DONE=  0.000000000000000    
_FOCKDONE=TRUE
_GRADONE=FALSE
_HESSDONE=FALSE
_INTDONE=TRUE
_SCFDONE=TRUE
_MODUL_BLOCK=FALSE
_MODUL_CUDA=FALSE
_MODUL_SLATER=FALSE
_MODUL_MRCC=FALSE
_MODUL_NBO6=FALSE
_MODUL_NECI=TRUE
_MODUL_AIMS=TRUE
_MRCC_EXEC=
_FITC_AO_SAVED=FALSE
_FITC_MO_SAVED=FALSE
_SHARED_FS=TRUE
_LSTYP=SEWARD
_INTYP=INTS
_GEOMTYP=ZMAT
_GRADTYP=ALASKA
_DIRECT=FALSE
_DKHO= -1.000000000000000    
_SYNCM=  0.000000000000000    
_BASIS=USERDEF
_ZORIENT=  1.000000000000000    
_NELEC=  18.00000000000000    
!SPIN=  0.000000000000000    
_QSDSTEP=  0.000000000000000    
_QSDIRC=  0.000000000000000    
_PROGRAM=MATROP
_CPUSTEP= 0.1000000000000023E-01
_SYSSTEP= 0.1000000000000001E-01
_WALLSTEP= 0.1800000000000000    
!DFSCF=  0.000000000000000    
!SCSGRD=  0.000000000000000    
_BASINP=  610.0000000000000    
_CPUTOT=  2.520000000000000    
_DFTEXFAC=  1.000000000000000    
_DMX=  0.000000000000000    
_DMY=  0.000000000000000    
_DMZ=  0.000000000000000    
_DMX_SCF= 0.7443828750091896    
_DMY_SCF=  0.000000000000000    
_DMZ_SCF=  0.000000000000000    
_EHOMO=-0.4665071449575350    
_ELUMO= 0.1919357610553415    
_ENUC=  38.06106386395650    
_EPS1= -20.65659980205726    
_EPS2= -20.65635912714149    
_GRADEXFAC=  9999.000000000000    
_GRADMETHOD=TRUE
_NMRMETHOD=  0.000000000000000    
!GRID_FREEZE= -1.000000000000000    
_ITERATIONS=  0.000000000000000    
_LASTNELEC=  10.00000000000000    
_LASTSPIN=  2.000000000000000    
_LASTSYM=  1.000000000000000    
_MPP_PROG=  0.000000000000000    
_NPROC_MPP=  1.000000000000000    
_NPROC_MPPX=  1.000000000000000    
_NPROC_SMP=  16.00000000000000    
_NUMSTEP=  0.000000000000000    
_ORBITAL=  2141.200000000000    
_PI=  3.141592653589793    
_SEIG_MIN= 0.2212598707150783E-01
_SEWPROP=TRUE
_STATUS=  0.000000000000000    
_SYSTOT=  1.220000000000000    
_VERSION=  2012001.000000000    
_WALLTOT=  19.70000000000000    
_DATE=24-Jan-19
_LASTORB=MCSCF
_MACHINE=Linux-4.9.0-8-amd64/nympha18.meta.zcu.cz(x86_64) (16 PROC) 64 bit serial version
_OUTPUT=/auto/brno2/home/masiz4am/git/UKRmol-in/tests/suite/C2_target_CAS3/molpro.xml
_PGROUP=C2
_TIME=16:19:47
_LIBMOL=/afs/ics.muni.cz/software/molpro-2012.1/molprop_2012_1_Linux_x86_64_i8/lib/
!VIBCNT=  0.000000000000000    
!RGHFCNT=  0.000000000000000    
!SURFREC=  0.000000000000000    
!POLYREC=  0.000000000000000    
!DIPREC=  0.000000000000000    
!VSCFREC=  0.000000000000000    
!VCIREC=  0.000000000000000    
!PVCIREC=  0.000000000000000    
!VMP2REC=  0.000000000000000    
!VMCSCFREC=  0.000000000000000    
!VMRCIREC=  0.000000000000000    
!VIBINFO=  0.000000000000000    
!GAREC=  0.000000000000000    
!SCFORB=  21002.00000000000    
!MCORB=  21412.00000000000    
!NEWMOL= -1.000000000000000    
!NEWSYM= -1.000000000000000    
_SLFILES=slscratch
_NGSSTO=  9.000000000000000    
_SIN=SIN
_COS=COS
_TAN=TAN
_ACOS=ACOS
_ASIN=ASIN
_ATAN=ATAN
_COSH=COSH
_SINH=SINH
_TANH=TANH
_ABS=ABS
_MOD=MOD
_ERF=ERF
_REFC=REFC
_ERFC=ERFC
_HYPOT=HYPOT
_J0=J0
_J1=J1
_JN=JN
_GAMMA=GAMMA
_LGAMMA=LGAMMA
_Y0=Y0
_Y1=Y1
_YN=YN
_EXP=EXP
_LOG=LOG
_LOG10=LOG10
_SQRT=SQRT
_INT=INT
_NINT=NINT
_MAX=MAX
_MIN=MIN
_COSMO=  0.000000000000000    
_COSMOIT=  0.000000000000000    
_COSMOES=  0.000000000000000    
_COSMOEDS=  0.000000000000000    
_COSMOEC=  0.000000000000000    
_COSMOEDCORR=  0.000000000000000    
_FEPSI=  1.000000000000000    
_SL_IsMM=  0.000000000000000    
_SL_NSYM=  2.000000000000000    
_SL_System_BitSw=  0.000000000000000    
_SL_Unique_atoms=  0.000000000000000    
_SL_GRAD=  0.000000000000000    
_SL_MAXUPD_Hess=  5.000000000000000    
_SL_N_PRINT_COD=  5.000000000000000    
_SL_PRINT_CODES=  0.000000000000000    
_SL_BasType=  0.000000000000000    
_SL_Energy_Pred=  0.000000000000000    
_SL_New_Coords=  0.000000000000000    
_SL_Total_Nuclea=  0.000000000000000    
_SL_Highest_Mltp=  0.000000000000000    
_SL_Ref_Geom=  0.000000000000000    
_SL_Symmetry_ope=  1.000000000000000    
_SL_agrad=  0.000000000000000    
_SL_GrdMax=  0.000000000000000    
_SL_GrdNorm=  0.000000000000000    
_SL_GrdRMS=  0.000000000000000    
!LATTICE= -1.000000000000000    
!NEWLATTICE=  0.000000000000000    
!LATGRAD_VAR=FALSE
!SEW_LATTICE=  1.000000000000000    
!LOCAL=  0.000000000000000    
!SAVEDOM= -1.000000000000000    
!RESTDOM= -1.000000000000000    
!SAVEDOM_HF= -1.000000000000000    
!RESTDOM_HF= -1.000000000000000    
!HESSREC=  0.000000000000000    
!FREQREC=  0.000000000000000    
!NMODREC=  0.000000000000000    
!GTASKS=  0.000000000000000    
!HTASKS=  0.000000000000000    
!THRCHG= 0.1000000000000000    
!DEBUG= -1.000000000000000    
!CFIT_CPHF=  0.000000000000000    
!RDOMAUX_CPHF=  3.000000000000000    
!THRAO_CPHF= 0.1000000000000000E-09
!THRMO_CPHF= 0.1000000000000000E-08
!THROV_CPHF= 0.1000000000000000E-11
!THRSW_CPHF= 0.1000000000000000E-09
!THRPROD_CPHF= 0.1000000000000000E-08
!THRAOPR_CPHF= 0.1000000000000000E-11
!CFIT_SCFGRD=  0.000000000000000    
!RDOMAUX_SCFGRD=  5.000000000000000    
!THRAO_SCFGRD= 0.1000000000000000E-09
!THRMO_SCFGRD= 0.1000000000000000E-08
!THROV_SCFGRD= 0.1000000000000000E-11
!THRSW_SCFGRD= 0.1000000000000000E-09
!THRPROD_SCFGRD= 0.1000000000000000E-08
!THRAOPR_SCFGRD= 0.1000000000000000E-11
!LOCFIT_SCF=  0.000000000000000    
!LOCFIT_MP2= -1.000000000000000    
_RIDOM=  0.000000000000000    
!CC2_METHOD=  0.000000000000000    
_BASIS2006=FALSE
_SVDDEL= -1.000000000000000    
_SVDDELA= -1.000000000000000    
_SVDDELP= -1.000000000000000    
_SVDDELF= -1.000000000000000    
_SVDDELS= -1.000000000000000    
_SVDDEL_ABS= -1.000000000000000    
_SVDDELA_ABS= -1.000000000000000    
_SVDDELP_ABS= -1.000000000000000    
_SVDDELF_ABS= -1.000000000000000    
_SVDDELS_ABS= -1.000000000000000    
_MAXBASIS=  0.000000000000000    
!OPT_CONICAL=  0.000000000000000    
!CLEARSP_JGRID=  0.000000000000000    
_4EXT_NDISKS=  1.000000000000000    
!ZMP=  0.000000000000000    
_MAXIT_ZMP=  500.0000000000000    
_MAXDIS_ZMP=  100.0000000000000    
_ACCU_ZMP=  14.00000000000000    
_SHIFTA_ZMP= -100.0000000000000    
!EMBEDFLAG=  1.000000000000000    
!EMBED=FALSE
!EMBED_F12=FALSE
!EMBEDNUC=  0.000000000000000    
_EMBEDENERGY=  0.000000000000000    
_KSPACETIME=  0.000000000000000    
_RSPACETIME=  0.000000000000000    
!EMBED_DFC=FALSE
!NUM_VOIDS=  0.000000000000000    
_IBODY=  0.000000000000000    
_EMBE_TOTAL=  0.000000000000000    
_EMBE_HF=  0.000000000000000    
_EMBE_CORR=  0.000000000000000    
!EDFT=  0.000000000000000    
_IFASTLATGRAD=  0.000000000000000    
_SINDEX=  0.000000000000000    
M_NAME=CASSCF(10,8)
M_CLOSED=  2.000000000000000    
M_OCC=  6.000000000000000    
GX1=-0.1043128750000000    
GY1=  1.315816206000000    
GZ1=  0.000000000000000    
GX2= 0.8345029970000000    
GY2=  1.699052636000000    
GZ2=  1.477198805000000    
GX3=-0.1043128750000000    
GY3= -1.315816206000000    
GZ3=  0.000000000000000    
GX4= 0.8345029970000000    
GY4= -1.699052636000000    
GZ4= -1.477198805000000    
_TRDMX= 0.3807006809367188E-01
_TRDMY=  0.000000000000000    
_TRDMZ=  0.000000000000000    
[Atoms] Angs
O     1    8        -0.0551999961        0.6962999474        0.0000000000
H     2    1         0.4415999669        0.8990999319        0.7816999408
O     3    8        -0.0551999961       -0.6962999474        0.0000000000
H     4    1         0.4415999669       -0.8990999319       -0.7816999408
[GTO]
  1 0
 s    8  1.00
  0.1172000000D+05  0.7096459465D-03
  0.1759000000D+04  0.5467272292D-02
  0.4008000000D+03  0.2782311861D-01
  0.1137000000D+03  0.1047477397D+00
  0.3703000000D+02  0.2829208464D+00
  0.1327000000D+02  0.4484952387D+00
  0.5025000000D+01  0.2708168852D+00
  0.1013000000D+01  0.1545029161D-01
 s    8  1.00
  0.1172000000D+05 -0.3144434117D-03
  0.1759000000D+04 -0.2482137681D-02
  0.4008000000D+03 -0.1231635538D-01
  0.1137000000D+03 -0.5053891734D-01
  0.3703000000D+02 -0.1393849033D+00
  0.1327000000D+02 -0.3250774948D+00
  0.5025000000D+01 -0.2298483076D+00
  0.1013000000D+01  0.1095379347D+01
 s    1  1.00
  0.3023000000D+00  0.1000000000D+01
 p    3  1.00
  0.1770000000D+02  0.6267916628D-01
  0.3854000000D+01  0.3335365659D+00
  0.1046000000D+01  0.7412396416D+00
 p    1  1.00
  0.2753000000D+00  0.1000000000D+01
 d    1  1.00
  0.1185000000D+01  0.1000000000D+01
  
  3 0
 s    8  1.00
  0.1172000000D+05  0.7096459465D-03
  0.1759000000D+04  0.5467272292D-02
  0.4008000000D+03  0.2782311861D-01
  0.1137000000D+03  0.1047477397D+00
  0.3703000000D+02  0.2829208464D+00
  0.1327000000D+02  0.4484952387D+00
  0.5025000000D+01  0.2708168852D+00
  0.1013000000D+01  0.1545029161D-01
 s    8  1.00
  0.1172000000D+05 -0.3144434117D-03
  0.1759000000D+04 -0.2482137681D-02
  0.4008000000D+03 -0.1231635538D-01
  0.1137000000D+03 -0.5053891734D-01
  0.3703000000D+02 -0.1393849033D+00
  0.1327000000D+02 -0.3250774948D+00
  0.5025000000D+01 -0.2298483076D+00
  0.1013000000D+01  0.1095379347D+01
 s    1  1.00
  0.3023000000D+00  0.1000000000D+01
 p    3  1.00
  0.1770000000D+02  0.6267916628D-01
  0.3854000000D+01  0.3335365659D+00
  0.1046000000D+01  0.7412396416D+00
 p    1  1.00
  0.2753000000D+00  0.1000000000D+01
 d    1  1.00
  0.1185000000D+01  0.1000000000D+01
  
  2 0
 s    3  1.00
  0.1301000000D+02  0.3349872639D-01
  0.1962000000D+01  0.2348008012D+00
  0.4446000000D+00  0.8136829579D+00
 s    1  1.00
  0.1220000000D+00  0.1000000000D+01
 p    1  1.00
  0.7270000000D+00  0.1000000000D+01
  
  4 0
 s    3  1.00
  0.1301000000D+02  0.3349872639D-01
  0.1962000000D+01  0.2348008012D+00
  0.4446000000D+00  0.8136829579D+00
 s    1  1.00
  0.1220000000D+00  0.1000000000D+01
 p    1  1.00
  0.7270000000D+00  0.1000000000D+01
 
 
[MO]
 Sym=      1.1
 Ene=     -20.6566
 Spin= Alpha
 Occup=    2.000000
1 0.70777786472338
2 0.000846765190506
3 -0.002177869129198
4 0.000271710259793
5 -0.000974013124026
6 0.000726686995388
7 -0.000247800085547
8 0.000039780982428
9 -0.000394038857269
10 0.000035551999802
11 -0.000208121852413
12 0.000172569852612
13 0.000021347796232
14 0.000079153998786
15 0.000041785806168
16 0.70777786472338
17 0.000846765190506
18 -0.002177869129198
19 0.000271710259793
20 0.000974013124026
21 -0.000726686995388
22 -0.000247800085547
23 -0.000039780982428
24 0.000394038857269
25 0.000035551999802
26 -0.000208121852413
27 0.000172569852612
28 -0.000021347796232
29 -0.000079153998786
30 0.000041785806168
31 -0.000280505503959
32 0.000473734094722
33 0.000250154842798
34 -0.000027197974717
35 0.000394347759846
36 -0.000280505503959
37 0.000473734094722
38 0.000250154842798
39 0.000027197974717
40 -0.000394347759846
 Sym=      1.2
 Ene=     -20.6564
 Spin= Alpha
 Occup=    2.000000
1 0.70788878127505
2 0.000891409486945
3 -0.003651826535961
4 0.000316250490513
5 -0.000443217154254
6 0.000496031416772
7 -0.000175025050176
8 0.001348738442370
9 -0.000391758652847
10 -0.000009023374194
11 -0.000144596765131
12 0.000153620139325
13 0.000033591125551
14 0.000077604487761
15 0.000018193652799
16 -0.70788878127505
17 -0.000891409486945
18 0.003651826535961
19 -0.000316250490513
20 -0.000443217154254
21 0.000496031416772
22 0.000175025050176
23 0.001348738442370
24 -0.000391758652847
25 0.000009023374194
26 0.000144596765131
27 -0.000153620139325
28 0.000033591125551
29 0.000077604487761
30 -0.000018193652799
31 -0.000221247956318
32 0.000071906875547
33 0.000303450779907
34 0.000069659190641
35 0.000472523878933
36 0.000221247956318
37 -0.000071906875547
38 -0.000303450779907
39 0.000069659190641
40 0.000472523878933
 Sym=      2.1
 Ene=      -1.3414
 Spin= Alpha
 Occup=    2.000000
1 -0.004141213670745
2 0.32835886749143
3 0.35112515932051
4 -0.018941639626669
5 0.020949641114777
6 -0.14570023797492
7 -0.014281453783836
8 0.037642048632282
9 -0.11769417922143
10 -0.003432303956316
11 0.011310712644311
12 -0.007878408687995
13 0.000741245208674
14 -0.001445073086654
15 -0.000293597260709
16 -0.004141213670745
17 0.32835886749143
18 0.35112515932051
19 -0.018941639626669
20 -0.020949641114777
21 0.14570023797492
22 -0.014281453783836
23 -0.037642048632282
24 0.11769417922143
25 -0.003432303956316
26 0.011310712644311
27 -0.007878408687995
28 -0.000741245208674
29 0.001445073086654
30 -0.000293597260709
31 0.006766479341415
32 -0.010359172613301
33 -0.004649681982689
34 0.000401579896755
35 -0.012560149379806
36 0.006766479341415
37 -0.010359172613301
38 -0.004649681982689
39 -0.000401579896755
40 0.012560149379806
 Sym=      2.2
 Ene=      -1.0278
 Spin= Alpha
 Occup=    2.000000
1 0.001106470472222
2 0.32542413745006
3 0.40043229083531
4 -0.024716652137985
5 0.083905092676225
6 -0.19866494384757
7 -0.019488075258769
8 0.040767581116893
9 -0.13675651296535
10 0.004248692788192
11 -0.004071412484422
12 -0.000177280303770
13 0.000661010593948
14 -0.002403821447220
15 0.009469479339067
16 -0.001106470472222
17 -0.32542413745006
18 -0.40043229083531
19 0.024716652137985
20 0.083905092676225
21 -0.19866494384757
22 0.019488075258769
23 0.040767581116893
24 -0.13675651296535
25 -0.004248692788192
26 0.004071412484422
27 0.000177280303770
28 0.000661010593948
29 -0.002403821447220
30 -0.009469479339067
31 -0.004332081176478
32 -0.023022778403200
33 -0.003422763488234
34 0.004131583613829
35 -0.009474596854626
36 0.004332081176478
37 0.023022778403200
38 0.003422763488234
39 0.004131583613829
40 -0.009474596854626
 Sym=      3.2
 Ene=      -0.9725
 Spin= Alpha
 Occup=    1.984440
1 0.001951134994319
2 0.14029628439883
3 0.046942928303546
4 0.095660511572180
5 0.023736101140305
6 0.31924870256991
7 0.027559756150548
8 -0.005830367255817
9 0.15255263586723
10 -0.001374790180527
11 -0.009056232010722
12 0.010431022191249
13 0.002418407350297
14 0.009192755711148
15 -0.009453888291623
16 -0.001951134994319
17 -0.14029628439883
18 -0.046942928303546
19 -0.095660511572180
20 0.023736101140305
21 0.31924870256991
22 -0.027559756150548
23 -0.005830367255817
24 0.15255263586723
25 0.001374790180527
26 0.009056232010722
27 -0.010431022191249
28 0.002418407350297
29 0.009192755711148
30 0.009453888291623
31 0.27576877750727
32 0.041866963103379
33 -0.023628300852809
34 -0.014220648302622
35 -0.032473989447765
36 -0.27576877750727
37 -0.041866963103379
38 0.023628300852809
39 -0.014220648302622
40 -0.032473989447765
 Sym=      3.1
 Ene=      -0.8163
 Spin= Alpha
 Occup=    1.981367
1 0.001156018227787
2 0.060264246588094
3 -0.072614395218151
4 0.23093026122016
5 -0.007906345228172
6 0.30306292159268
7 0.11641241884765
8 -0.025079136297406
9 0.15410205303155
10 -0.002110139169211
11 -0.005392553318296
12 0.007502692487507
13 -0.008376164351695
14 0.011053893367155
15 0.004737648454463
16 0.001156018227787
17 0.060264246588094
18 -0.072614395218151
19 0.23093026122016
20 0.007906345228172
21 -0.30306292159268
22 0.11641241884765
23 0.025079136297406
24 -0.15410205303155
25 -0.002110139169211
26 -0.005392553318296
27 0.007502692487507
28 0.008376164351695
29 -0.011053893367155
30 0.004737648454463
31 0.29480305720605
32 0.050560373108094
33 -0.020374580762557
34 -0.011283101828007
35 -0.031980100562140
36 0.29480305720605
37 0.050560373108094
38 -0.020374580762557
39 0.011283101828007
40 0.031980100562140
 Sym=      4.1
 Ene=      -0.7349
 Spin= Alpha
 Occup=    1.929577
1 -0.002168370918857
2 0.013910649814871
3 -0.036697963410094
4 -0.018678652581623
5 -0.45764807242632
6 0.049960903942312
7 0.006035241924327
8 -0.25590678447721
9 0.062911555820295
10 -0.013954751069130
11 0.026960339339323
12 -0.013005588270193
13 -0.004278959517040
14 0.000037144168757
15 -0.007719588747213
16 -0.002168370918857
17 0.013910649814871
18 -0.036697963410094
19 -0.018678652581623
20 0.45764807242632
21 -0.049960903942312
22 0.006035241924327
23 0.25590678447721
24 -0.062911555820295
25 -0.013954751069130
26 0.026960339339323
27 -0.013005588270193
28 0.004278959517040
29 -0.000037144168757
30 -0.007719588747213
31 -0.066166651108623
32 -0.044349912667631
33 0.004782853001367
34 -0.008699513189667
35 0.011884000584902
36 -0.066166651108623
37 -0.044349912667631
38 0.004782853001367
39 0.008699513189667
40 -0.011884000584902
 Sym=      5.1
 Ene=      -0.5150
 Spin= Alpha
 Occup=    1.576586
1 -0.001312118604914
2 -0.046078268039139
3 -0.015959072302200
4 0.35258117268043
5 -0.035685770740251
6 -0.27677212441530
7 0.26205325042776
8 -0.018826330224578
9 -0.19308720366262
10 0.007081894804377
11 0.002377207265492
12 -0.009459102069868
13 -0.016175751526774
14 0.002608527997182
15 -0.003238190378248
16 -0.001312118604914
17 -0.046078268039139
18 -0.015959072302200
19 0.35258117268043
20 0.035685770740251
21 0.27677212441530
22 0.26205325042776
23 0.018826330224578
24 0.19308720366262
25 0.007081894804377
26 0.002377207265492
27 -0.009459102069868
28 0.016175751526774
29 -0.002608527997182
30 -0.003238190378248
31 -0.075592421816977
32 -0.014218347014160
33 0.020881147152979
34 -0.002419220319962
35 -0.001870029367930
36 -0.075592421816977
37 -0.014218347014160
38 0.020881147152979
39 0.002419220319962
40 0.001870029367930
 Sym=      4.2
 Ene=      -0.3880
 Spin= Alpha
 Occup=    1.534599
1 -0.000426488630691
2 -0.044248755370374
3 -0.097637013745410
4 0.46963712951530
5 -0.004978062687065
6 -0.14483802914739
7 0.33243678886062
8 -0.005320470291832
9 -0.11504467508439
10 0.005655720222485
11 -0.000541094414243
12 -0.005114625808243
13 0.004563083177725
14 0.009376176991897
15 0.005161667324414
16 0.000426488630691
17 0.044248755370374
18 0.097637013745410
19 -0.46963712951530
20 -0.004978062687065
21 -0.14483802914739
22 -0.33243678886062
23 -0.005320470291832
24 -0.11504467508439
25 -0.005655720222485
26 0.000541094414243
27 0.005114625808243
28 0.004563083177725
29 0.009376176991897
30 -0.005161667324414
31 0.096197385061796
32 0.025545196962942
33 0.011895894492629
34 -0.002059425898957
35 -0.019102878395958
36 -0.096197385061796
37 -0.025545196962942
38 -0.011895894492629
39 -0.002059425898957
40 -0.019102878395958
 Sym=      5.2
 Ene=       0.1407
 Spin= Alpha
 Occup=    0.513684
1 -0.007746949421067
2 -0.17686986572855
3 -0.48321184131505
4 -0.040060049496728
5 0.53519530161656
6 -0.051173340047001
7 -0.029097216975013
8 0.48475510808338
9 -0.036338393280562
10 -0.007242877290382
11 0.017259249264418
12 -0.010016371974035
13 0.006409331051521
14 -0.000853232510010
15 0.013304312127026
16 0.007746949421067
17 0.17686986572855
18 0.48321184131505
19 0.040060049496728
20 0.53519530161656
21 -0.051173340047001
22 0.029097216975013
23 0.48475510808338
24 -0.036338393280562
25 0.007242877290382
26 -0.017259249264418
27 0.010016371974035
28 0.006409331051521
29 -0.000853232510010
30 -0.013304312127026
31 0.056599285073141
32 0.19623705321530
33 -0.000616288798150
34 0.025782522264763
35 -0.000158434107309
36 -0.056599285073141
37 -0.19623705321530
38 0.000616288798150
39 0.025782522264763
40 -0.000158434107309
 Sym=      6.1
 Ene=       0.1452
 Spin= Alpha
 Occup=    0.441682
1 0.002921948780339
2 -0.11633044417276
3 -0.52936159095293
4 -0.12713276275996
5 -0.071805245056781
6 -0.19177428252411
7 -0.12916702265704
8 -0.085823554979718
9 -0.17690425266566
10 0.002620383038945
11 -0.005255661188518
12 0.002635278149573
13 0.004970156717298
14 -0.001798153438651
15 0.000033327653062
16 0.002921948780339
17 -0.11633044417276
18 -0.52936159095293
19 -0.12713276275996
20 0.071805245056781
21 0.19177428252411
22 -0.12916702265704
23 0.085823554979718
24 0.17690425266566
25 0.002620383038945
26 -0.005255661188518
27 0.002635278149573
28 -0.004970156717298
29 0.001798153438651
30 0.000033327653062
31 0.16676246777035
32 0.79939178682777
33 0.012184250700814
34 0.000685410914939
35 0.017602821521317
36 0.16676246777035
37 0.79939178682777
38 0.012184250700814
39 -0.000685410914939
40 -0.017602821521317
 Sym=      6.2
 Ene=       0.5304
 Spin= Alpha
 Occup=    0.038064
1 -0.053162109844338
2 -0.18505698616668
3 -0.11789837620405
4 -0.22267111294016
5 -0.28085028830548
6 -0.40546759876397
7 -0.021532783698633
8 -0.015764238676232
9 -0.016361691874967
10 0.008108894239452
11 0.005077734896929
12 -0.013186629136381
13 0.000516336288307
14 -0.005492217303199
15 -0.025222307454267
16 0.053162109844338
17 0.18505698616668
18 0.11789837620405
19 0.22267111294016
20 -0.28085028830548
21 -0.40546759876397
22 0.021532783698633
23 -0.015764238676232
24 -0.016361691874967
25 -0.008108894239452
26 -0.005077734896929
27 0.013186629136381
28 0.000516336288307
29 -0.005492217303199
30 0.025222307454267
31 0.41259932912811
32 0.37330356388680
33 0.019901401719364
34 -0.006696022893997
35 0.031495257184367
36 -0.41259932912811
37 -0.37330356388680
38 -0.019901401719364
39 -0.006696022893997
40 0.031495257184367
 Sym=      7.2
 Ene=       0.6628
 Spin= Alpha
 Occup=    0.000000
1 -0.060412688858489
2 -0.16660631491009
3 0.33172237323831
4 -0.12158176576276
5 0.059618036683379
6 -0.12808799334282
7 0.11352369558296
8 0.27704271201962
9 0.24599771426160
10 -0.012533117998515
11 -0.018954337700195
12 0.031487455698710
13 0.010770169232667
14 0.057334054967725
15 0.029185209954401
16 0.060412688858489
17 0.16660631491009
18 -0.33172237323831
19 0.12158176576276
20 0.059618036683379
21 -0.12808799334282
22 -0.11352369558296
23 0.27704271201962
24 0.24599771426160
25 0.012533117998515
26 0.018954337700195
27 -0.031487455698710
28 0.010770169232667
29 0.057334054967725
30 -0.029185209954401
31 0.62466474095984
32 -1.34161521337171
33 0.11495230247516
34 0.039275917232314
35 0.17990939449443
36 -0.62466474095984
37 1.34161521337171
38 -0.11495230247516
39 0.039275917232314
40 0.17990939449443
 Sym=      7.1
 Ene=       0.8015
 Spin= Alpha
 Occup=    0.000000
1 -0.030640602308840
2 -0.085287433281317
3 0.26774871806923
4 -0.11303096726813
5 0.037187002541368
6 -0.28159272258663
7 0.012668735062638
8 -0.091790008373114
9 -0.005628939431966
10 -0.005094302229189
11 -0.044650802878402
12 0.049745105107591
13 0.028788036881143
14 0.064395105518469
15 0.015612762132373
16 -0.030640602308840
17 -0.085287433281317
18 0.26774871806923
19 -0.11303096726813
20 -0.037187002541368
21 0.28159272258663
22 0.012668735062638
23 0.091790008373114
24 0.005628939431966
25 -0.005094302229189
26 -0.044650802878402
27 0.049745105107591
28 -0.028788036881143
29 -0.064395105518469
30 0.015612762132373
31 0.79233538404340
32 -0.74780772612571
33 0.12384278510658
34 0.056224168327686
35 0.19746035530881
36 0.79233538404340
37 -0.74780772612571
38 0.12384278510658
39 -0.056224168327686
40 -0.19746035530881
 Sym=      8.2
 Ene=       1.0614
 Spin= Alpha
 Occup=    0.000000
1 0.006267032322808
2 -0.10215160934271
3 -0.80591567196448
4 -0.013890914752289
5 -0.37740784069697
6 0.41558758899416
7 -0.23475574975181
8 0.88699093084102
9 -0.63954677180174
10 0.010818698061876
11 -0.027008389508952
12 0.016189691447076
13 -0.003542376336509
14 0.010256654169064
15 0.005140889003489
16 -0.006267032322808
17 0.10215160934271
18 0.80591567196448
19 0.013890914752289
20 -0.37740784069697
21 0.41558758899416
22 0.23475574975181
23 0.88699093084102
24 -0.63954677180174
25 -0.010818698061876
26 0.027008389508952
27 -0.016189691447076
28 -0.003542376336509
29 0.010256654169064
30 -0.005140889003489
31 0.46547998994144
32 0.009035075239991
33 -0.052041831123578
34 -0.024865461117195
35 -0.10027386212356
36 -0.46547998994144
37 -0.009035075239991
38 0.052041831123578
39 -0.024865461117195
40 -0.10027386212356
 Sym=      8.1
 Ene=       1.0991
 Spin= Alpha
 Occup=    0.000000
1 0.039728499323447
2 0.14777909948150
3 0.37324476490740
4 -0.43492234472483
5 -0.19572399519075
6 -0.14965232786877
7 0.62374837451028
8 0.30574979445186
9 0.75287642083240
10 -0.020572881661055
11 0.052131401470102
12 -0.031558519809048
13 0.007005224054006
14 0.004013170439318
15 0.014551085703317
16 0.039728499323447
17 0.14777909948150
18 0.37324476490740
19 -0.43492234472483
20 0.19572399519075
21 0.14965232786877
22 0.62374837451028
23 -0.30574979445186
24 -0.75287642083240
25 -0.020572881661055
26 0.052131401470102
27 -0.031558519809048
28 -0.007005224054006
29 -0.004013170439318
30 0.014551085703317
31 -0.56682503145642
32 -0.12501117483431
33 0.12622680049428
34 0.16242230581129
35 0.12931129547467
36 -0.56682503145642
37 -0.12501117483431
38 0.12622680049428
39 -0.16242230581129
40 -0.12931129547467
 Sym=      9.2
 Ene=       1.1040
 Spin= Alpha
 Occup=    0.000000
1 -0.007974951123863
2 -0.035753153891662
3 -0.26569474674499
4 0.11630628085839
5 -0.37088638296608
6 -0.24475970886712
7 0.19567323085758
8 1.41577649019736
9 0.65847946957164
10 0.019286448377323
11 -0.025831758448787
12 0.006545310071464
13 0.002512270406818
14 -0.017666535926405
15 -0.037772009696041
16 0.007974951123863
17 0.035753153891662
18 0.26569474674499
19 -0.11630628085839
20 -0.37088638296608
21 -0.24475970886712
22 -0.19567323085758
23 1.41577649019736
24 0.65847946957164
25 -0.019286448377323
26 0.025831758448787
27 -0.006545310071464
28 0.002512270406818
29 -0.017666535926405
30 0.037772009696041
31 -0.48045773113130
32 -0.60236291010297
33 0.064175715356453
34 -0.13363479381626
35 0.10465607317165
36 0.48045773113130
37 0.60236291010297
38 -0.064175715356453
39 -0.13363479381626
40 0.10465607317165
 Sym=      9.1
 Ene=       1.1201
 Spin= Alpha
 Occup=    0.000000
1 0.010764300008456
2 0.022948919794960
3 -0.19239636004759
4 -0.47080230731405
5 0.26393960577672
6 0.31091735050223
7 0.34701778772635
8 -0.25677156820446
9 -0.61290603213602
10 0.017382394098011
11 -0.043999004648705
12 0.026616610550695
13 -0.007366930848622
14 -0.006273663048991
15 -0.011930194116716
16 0.010764300008456
17 0.022948919794960
18 -0.19239636004759
19 -0.47080230731405
20 -0.26393960577672
21 -0.31091735050223
22 0.34701778772635
23 0.25677156820446
24 0.61290603213602
25 0.017382394098011
26 -0.043999004648705
27 0.026616610550695
28 0.007366930848622
29 0.006273663048991
30 -0.011930194116716
31 0.19088684925637
32 -0.012323853625254
33 -0.027563794334128
34 -0.20540672393421
35 -0.014142476703056
36 0.19088684925637
37 -0.012323853625254
38 -0.027563794334128
39 0.20540672393421
40 0.014142476703056
 Sym=     10.2
 Ene=       1.1951
 Spin= Alpha
 Occup=    0.000000
1 -0.009399371421511
2 0.024798170507804
3 0.31042935220368
4 -0.54804040755338
5 -0.052073181662242
6 0.13699784933762
7 1.07312183940257
8 0.055430509587026
9 0.17197895390916
10 0.004249146749638
11 -0.001269550093657
12 -0.002979596655981
13 0.024005776721593
14 -0.025493723521527
15 -0.001995232967807
16 0.009399371421511
17 -0.024798170507804
18 -0.31042935220368
19 0.54804040755338
20 -0.052073181662242
21 0.13699784933762
22 -1.07312183940257
23 0.055430509587026
24 0.17197895390916
25 -0.004249146749638
26 0.001269550093657
27 0.002979596655981
28 0.024005776721593
29 -0.025493723521527
30 0.001995232967807
31 -0.46997188193646
32 -0.078076085152804
33 0.037435768775268
34 0.17299913341074
35 0.065468012738383
36 0.46997188193646
37 0.078076085152804
38 -0.037435768775268
39 0.17299913341074
40 0.065468012738383
 Sym=     10.1
 Ene=       1.2895
 Spin= Alpha
 Occup=    0.000000
1 -0.10318529861261
2 -0.28263055911575
3 0.39056741103866
4 -0.049516897935993
5 -0.51346758765704
6 0.32643958540940
7 -0.030496208776165
8 0.55013685743612
9 -0.67933574506450
10 -0.042196986441231
11 0.062037736623867
12 -0.019840750182636
13 0.018973178212643
14 0.031475587491061
15 -0.012709937282083
16 -0.10318529861261
17 -0.28263055911575
18 0.39056741103866
19 -0.049516897935993
20 0.51346758765704
21 -0.32643958540940
22 -0.030496208776165
23 -0.55013685743612
24 0.67933574506450
25 -0.042196986441231
26 0.062037736623867
27 -0.019840750182636
28 -0.018973178212643
29 -0.031475587491061
30 -0.012709937282083
31 0.37319216421801
32 -0.23837696969950
33 0.037820083204815
34 0.021691115010709
35 -0.014335143621550
36 0.37319216421801
37 -0.23837696969950
38 0.037820083204815
39 -0.021691115010709
40 0.014335143621550
 Sym=     11.2
 Ene=       1.4541
 Spin= Alpha
 Occup=    0.000000
1 0.009540855897056
2 0.000989565748839
3 -0.21196819109984
4 -0.13332346148166
5 0.096984302684048
6 0.076794380223769
7 -0.080871602340367
8 0.21347768294096
9 -0.095123489509535
10 0.044073913934494
11 -0.000911475399528
12 -0.043162438534967
13 -0.005009838849602
14 0.056557636243234
15 -0.10206083367676
16 -0.009540855897056
17 -0.000989565748839