
    -----------------------------------------------------------------------
          Psi4: An Open-Source Ab Initio Electronic Structure Package
                               Psi4 1.3.2 release

                         Git: Rev {HEAD} ecbda83 


    R. M. Parrish, L. A. Burns, D. G. A. Smith, A. C. Simmonett,
    A. E. DePrince III, E. G. Hohenstein, U. Bozkaya, A. Yu. Sokolov,
    R. Di Remigio, R. M. Richard, J. F. Gonthier, A. M. James,
    H. R. McAlexander, A. Kumar, M. Saitow, X. Wang, B. P. Pritchard,
    P. Verma, H. F. Schaefer III, K. Patkowski, R. A. King, E. F. Valeev,
    F. A. Evangelista, J. M. Turney, T. D. Crawford, and C. D. Sherrill,
    J. Chem. Theory Comput. 13(7) pp 3185--3197 (2017).
    (doi: 10.1021/acs.jctc.7b00174)


                         Additional Contributions by
    P. Kraus, H. Kruse, M. H. Lechner, M. C. Schieber, R. A. Shaw,
    A. Alenaizan, R. Galvelis, Z. L. Glick, S. Lehtola, and J. P. Misiewicz

    -----------------------------------------------------------------------


    Psi4 started on: Friday, 17 February 2023 03:39PM

    Process ID: 46162
    Host:       nico-Latitude-5400
    PSIDATADIR: /home/nico/Workspace/Progs/psi4conda/share/psi4
    Memory:     500.0 MiB
    Threads:    1
    
  ==> Input File <==

--------------------------------------------------------------------------
memory 600 mb

molecule h2o {
  O 
  H 1 0.96
  H 1 0.96 2 104.5
}

set basis cc-pVDZ
energy('scf')

--------------------------------------------------------------------------

  Memory set to 572.205 MiB by Python driver.

*** tstart() called on nico-Latitude-5400
*** at Fri Feb 17 15:39:06 2023

   => Loading Basis Set <=

    Name: CC-PVDZ
    Role: ORBITAL
    Keyword: BASIS
    atoms 1   entry O          line   198 file /home/nico/Workspace/Progs/psi4conda/share/psi4/basis/cc-pvdz.gbs 
    atoms 2-3 entry H          line    22 file /home/nico/Workspace/Progs/psi4conda/share/psi4/basis/cc-pvdz.gbs 


         ---------------------------------------------------------
                                   SCF
               by Justin Turney, Rob Parrish, Andy Simmonett
                          and Daniel G. A. Smith
                              RHF Reference
                        1 Threads,    572 MiB Core
         ---------------------------------------------------------

  ==> Geometry <==

    Molecular point group: c2v
    Full point group: C2v

    Geometry (in Angstrom), charge = 0, multiplicity = 1:

       Center              X                  Y                   Z               Mass       
    ------------   -----------------  -----------------  -----------------  -----------------
         O            0.000000000000     0.000000000000    -0.065775570547    15.994914619570
         H            0.000000000000    -0.759061990794     0.521953018286     1.007825032230
         H            0.000000000000     0.759061990794     0.521953018286     1.007825032230

  Running in c2v symmetry.

  Rotational constants: A =     27.26297  B =     14.51533  C =      9.47217 [cm^-1]
  Rotational constants: A = 817323.21126  B = 435158.60141  C = 283968.37536 [MHz]
  Nuclear repulsion =    9.168193296424349

  Charge       = 0
  Multiplicity = 1
  Electrons    = 10
  Nalpha       = 5
  Nbeta        = 5

  ==> Algorithm <==

  SCF Algorithm Type is DF.
  DIIS enabled.
  MOM disabled.
  Fractional occupation disabled.
  Guess Type is SAD.
  Energy threshold   = 1.00e-06
  Density threshold  = 1.00e-06
  Integral threshold = 0.00e+00

  ==> Primary Basis <==

  Basis Set: CC-PVDZ
    Blend: CC-PVDZ
    Number of shells: 12
    Number of basis function: 24
    Number of Cartesian functions: 25
    Spherical Harmonics?: true
    Max angular momentum: 2

   => Loading Basis Set <=

    Name: (CC-PVDZ AUX)
    Role: JKFIT
    Keyword: DF_BASIS_SCF
    atoms 1   entry O          line   221 file /home/nico/Workspace/Progs/psi4conda/share/psi4/basis/cc-pvdz-jkfit.gbs 
    atoms 2-3 entry H          line    51 file /home/nico/Workspace/Progs/psi4conda/share/psi4/basis/cc-pvdz-jkfit.gbs 

  ==> Pre-Iterations <==

   -------------------------------------------------------
    Irrep   Nso     Nmo     Nalpha   Nbeta   Ndocc  Nsocc
   -------------------------------------------------------
     A1        11      11       0       0       0       0
     A2         2       2       0       0       0       0
     B1         4       4       0       0       0       0
     B2         7       7       0       0       0       0
   -------------------------------------------------------
    Total      24      24       5       5       5       0
   -------------------------------------------------------

  ==> Integral Setup <==

  DFHelper Memory: AOs need 0.001 GiB; user supplied 0.419 GiB. Using in-core AOs.

  ==> MemDFJK: Density-Fitted J/K Matrices <==

    J tasked:                   Yes
    K tasked:                   Yes
    wK tasked:                   No
    OpenMP threads:               1
    Memory [MiB]:               429
    Algorithm:                 Core
    Schwarz Cutoff:           1E-12
    Mask sparsity (%):       0.0000
    Fitting Condition:        1E-10

   => Auxiliary Basis Set <=

  Basis Set: (CC-PVDZ AUX)
    Blend: CC-PVDZ-JKFIT
    Number of shells: 42
    Number of basis function: 116
    Number of Cartesian functions: 131
    Spherical Harmonics?: true
    Max angular momentum: 3

  Minimum eigenvalue in the overlap matrix is 3.4377086613E-02.
  Using Symmetric Orthogonalization.

  SCF Guess: Superposition of Atomic Densities via on-the-fly atomic UHF.

  ==> Iterations <==

                           Total Energy        Delta E     RMS |[F,P]|

   @DF-RHF iter SAD:   -75.50772041125779   -7.55077e+01   0.00000e+00 
   @DF-RHF iter   1:   -75.95376270516581   -4.46042e-01   3.03066e-02 DIIS
   @DF-RHF iter   2:   -76.00706363301771   -5.33009e-02   1.73566e-02 DIIS
   @DF-RHF iter   3:   -76.02622368352002   -1.91601e-02   1.58492e-03 DIIS
   @DF-RHF iter   4:   -76.02661218857619   -3.88505e-04   3.65252e-04 DIIS
   @DF-RHF iter   5:   -76.02663177688974   -1.95883e-05   6.70709e-05 DIIS
   @DF-RHF iter   6:   -76.02663270835725   -9.31468e-07   1.06747e-05 DIIS
   @DF-RHF iter   7:   -76.02663273455087   -2.61936e-08   1.50583e-06 DIIS
   @DF-RHF iter   8:   -76.02663273509032   -5.39444e-10   3.50189e-07 DIIS
  Energy and wave function converged.


  ==> Post-Iterations <==

    Orbital Energies [Eh]
    ---------------------

    Doubly Occupied:                                                      

       1A1   -20.550924     2A1    -1.335311     1B2    -0.697803  
       3A1    -0.566087     1B1    -0.492948  

    Virtual:                                                              

       4A1     0.185107     2B2     0.255846     3B2     0.787337  
       5A1     0.851826     6A1     1.163856     2B1     1.200425  
       4B2     1.253574     7A1     1.445291     1A2     1.476011  
       3B1     1.674661     8A1     1.868111     5B2     1.932579  
       6B2     2.446530     9A1     2.483817     4B1     3.283958  
       2A2     3.336670    10A1     3.507635    11A1     3.863421  
       7B2     4.144760  

    Final Occupation by Irrep:
             A1    A2    B1    B2 
    DOCC [     3,    0,    1,    1 ]

  @DF-RHF Final Energy:   -76.02663273509032

   => Energetics <=

    Nuclear Repulsion Energy =              9.1681932964243487
    One-Electron Energy =                -123.1035077212717397
    Two-Electron Energy =                  37.9086816897570742
    Total Energy =                        -76.0266327350903168

Computation Completed


Properties will be evaluated at   0.000000,   0.000000,   0.000000 [a0]

Properties computed using the SCF density matrix

  Nuclear Dipole Moment: [e a0]
     X:     0.0000      Y:     0.0000      Z:     0.9783

  Electronic Dipole Moment: [e a0]
     X:     0.0000      Y:     0.0000      Z:    -0.1680

  Dipole Moment: [e a0]
     X:     0.0000      Y:     0.0000      Z:     0.8103     Total:     0.8103

  Dipole Moment: [D]
     X:     0.0000      Y:     0.0000      Z:     2.0595     Total:     2.0595


*** tstop() called on nico-Latitude-5400 at Fri Feb 17 15:39:06 2023
Module time:
	user time   =       0.40 seconds =       0.01 minutes
	system time =       0.02 seconds =       0.00 minutes
	total time  =          0 seconds =       0.00 minutes
Total time:
	user time   =       0.40 seconds =       0.01 minutes
	system time =       0.02 seconds =       0.00 minutes
	total time  =          0 seconds =       0.00 minutes

    Psi4 stopped on: Friday, 17 February 2023 03:39PM
    Psi4 wall time for execution: 0:00:00.47

*** Psi4 exiting successfully. Buy a developer a beer!
