[Molden Format]
[Molpro variables]
_NUMVAR=  818.0000000000000    
_AVOGAD= 0.6022136736000000E+24
_BOLTZ= 0.1380658000000000E-22
_CLIGHT=  29979245800.00000    
_EV2006= 0.3674930886769165E-01
_EV= 0.3674932534394180E-01
_ENULL= 0.8854187817000000E-11
_KJOULE= 0.3808798324128737E-03
_KJOULE/MOL= 0.3808798324128737E-03
_CM= 0.4556335267302901E-05
_CM-1= 0.4556335267302901E-05
_DEB2SI= 0.3335641000000000E-29
_AMU2AU=  1822.888390000000    
_KCAL= 0.1593601117815568E-02
_KCAL/MOL= 0.1593601117815568E-02
_KELVIN2006= 0.3166828861084835E-05
_KELVIN= 0.3166814820820034E-05
_JOULE= 0.4359748200000000E-17
_HERTZ2006= 0.1519829850815779E-15
_HERTZ= 0.1519829846011223E-15
_HZ2006= 0.1519829850815779E-15
_HZ= 0.1519829846011223E-15
_JPCAL=  4.184000000000000    
_PLANCK= 0.6626075540000000E-33
_TOA2006= 0.5291772490000000    
_TOA= 0.5291772090000000    
_TOANG2006= 0.5291772490000000    
_TOANG= 0.5291772090000000    
_TORAD= 0.1745329251994330E-01
_TOCM=  219474.6306700000    
_TODEBYE=  2.541580000000000    
_TOEV2006=  27.21139610000000    
_TOE= 0.4803242000000000E-09
_TOEV=  27.21138390000000    
_TOHERTZ2006=  6579683899900000.    
_TOHERTZ=  6579683920700000.    
_TOHZ2006=  6579683899900000.    
_TOHZ=  6579683920700000.    
_TOK2006=  315773.3000000000    
_TOK=  315774.7000000000    
_TOKCAL=  627.5096000000000    
_TOKELVIN2006=  315773.3000000000    
_TOKELVIN=  315774.7000000000    
_TOKJ=  2625.500000000000    
_TOKJOULE=  2625.500000000000    
_TOKG= 0.1660565586000000E-26
_ANG2006=  1.889725988578923    
_ANG=  1.889726131421507    
_ANGSTROM2006=  1.889725988578923    
_ANGSTROM=  1.889726131421507    
_RPAREF=  0.000000000000000    
_RPADISS=  0.000000000000000    
_IGNORE_UNDEF=  2.000000000000000    
_STRICTCHECK=  0.000000000000000    
_SEW_ONEEL=  0.000000000000000    
_CPPDONE=FALSE
_DKROLL_DONE=  0.000000000000000    
_FOCKDONE=TRUE
_GRADONE=FALSE
_HESSDONE=FALSE
_INTDONE=TRUE
_SCFDONE=TRUE
_MODUL_BLOCK=FALSE
_MODUL_CUDA=FALSE
_MODUL_SLATER=FALSE
_MODUL_MRCC=FALSE
_MODUL_NBO6=FALSE
_MODUL_NECI=TRUE
_MODUL_AIMS=TRUE
_MRCC_EXEC=
_FITC_AO_SAVED=FALSE
_FITC_MO_SAVED=FALSE
_SHARED_FS=TRUE
_LSTYP=SEWARD
_INTYP=INTS
_GEOMTYP=ZMAT
_GRADTYP=ALASKA
_DIRECT=FALSE
_DKHO= -1.000000000000000    
_SYNCM=  0.000000000000000    
_BASIS=USERDEF
_ZORIENT=  1.000000000000000    
_NELEC=  42.00000000000000    
!SPIN=  0.000000000000000    
_QSDSTEP=  0.000000000000000    
_QSDIRC=  0.000000000000000    
_PROGRAM=MATROP
_CPUSTEP= 0.5499999999999972    
_SYSSTEP= 0.3000000000000025E-01
_WALLSTEP= 0.1900000000000000    
!DFSCF=  0.000000000000000    
!SCSGRD=  0.000000000000000    
_BASINP=  610.0000000000000    
_CPUTOT=  71.84999999999999    
_DFTEXFAC=  1.000000000000000    
_DMX=  0.000000000000000    
_DMY=  0.000000000000000    
_DMZ=  0.000000000000000    
_DMX_SCF=-0.8718533513078426    
_DMY_SCF=  0.000000000000000    
_DMZ_SCF=  0.000000000000000    
_EHOMO=-0.3439228265393297    
_ELUMO= 0.1154928063171499    
_ENUC=  205.5266160318501    
_EPS1= -15.58871963631289    
_EPS2= -11.25730657767634    
_EPS3=-0.5099741184760909    
_EPS4=-0.2911500051995158    
_GRADEXFAC=  9999.000000000000    
_GRADMETHOD=TRUE
_NMRMETHOD=  0.000000000000000    
!GRID_FREEZE= -1.000000000000000    
_ITERATIONS=  0.000000000000000    
_LASTNELEC=  10.00000000000000    
_LASTSPIN=  2.000000000000000    
_LASTSYM=  1.000000000000000    
_MPP_PROG=  0.000000000000000    
_NPROC_MPP=  1.000000000000000    
_NPROC_MPPX=  1.000000000000000    
_NPROC_SMP=  16.00000000000000    
_NUMSTEP=  0.000000000000000    
_ORBITAL=  2141.200000000000    
_PI=  3.141592653589793    
_SEIG_MIN= 0.8148194445629567E-03
_SEWPROP=TRUE
_STATUS=  0.000000000000000    
_SYSTOT=  3.450000000000000    
_VERSION=  2012001.000000000    
_WALLTOT=  59.11000000000000    
_DATE=24-Jan-19
_LASTORB=MCSCF
_MACHINE=Linux-4.9.0-8-amd64/nympha18.meta.zcu.cz(x86_64) (16 PROC) 64 bit serial version
_OUTPUT=/auto/brno2/home/masiz4am/git/UKRmol-in/tests/suite/C2v_target_CAS3/molpro.xml
_PGROUP=C2v
_TIME=16:33:20
_LIBMOL=/afs/ics.muni.cz/software/molpro-2012.1/molprop_2012_1_Linux_x86_64_i8/lib/
!VIBCNT=  0.000000000000000    
!RGHFCNT=  0.000000000000000    
!SURFREC=  0.000000000000000    
!POLYREC=  0.000000000000000    
!DIPREC=  0.000000000000000    
!VSCFREC=  0.000000000000000    
!VCIREC=  0.000000000000000    
!PVCIREC=  0.000000000000000    
!VMP2REC=  0.000000000000000    
!VMCSCFREC=  0.000000000000000    
!VMRCIREC=  0.000000000000000    
!VIBINFO=  0.000000000000000    
!GAREC=  0.000000000000000    
!SCFORB=  21002.00000000000    
!MCORB=  21412.00000000000    
!NEWMOL= -1.000000000000000    
!NEWSYM= -1.000000000000000    
_SLFILES=slscratch
_NGSSTO=  9.000000000000000    
_SIN=SIN
_COS=COS
_TAN=TAN
_ACOS=ACOS
_ASIN=ASIN
_ATAN=ATAN
_COSH=COSH
_SINH=SINH
_TANH=TANH
_ABS=ABS
_MOD=MOD
_ERF=ERF
_REFC=REFC
_ERFC=ERFC
_HYPOT=HYPOT
_J0=J0
_J1=J1
_JN=JN
_GAMMA=GAMMA
_LGAMMA=LGAMMA
_Y0=Y0
_Y1=Y1
_YN=YN
_EXP=EXP
_LOG=LOG
_LOG10=LOG10
_SQRT=SQRT
_INT=INT
_NINT=NINT
_MAX=MAX
_MIN=MIN
_COSMO=  0.000000000000000    
_COSMOIT=  0.000000000000000    
_COSMOES=  0.000000000000000    
_COSMOEDS=  0.000000000000000    
_COSMOEC=  0.000000000000000    
_COSMOEDCORR=  0.000000000000000    
_FEPSI=  1.000000000000000    
_SL_IsMM=  0.000000000000000    
_SL_NSYM=  4.000000000000000    
_SL_System_BitSw=  0.000000000000000    
_SL_Unique_atoms=  0.000000000000000    
_SL_GRAD=  0.000000000000000    
_SL_MAXUPD_Hess=  5.000000000000000    
_SL_N_PRINT_COD=  5.000000000000000    
_SL_PRINT_CODES=  0.000000000000000    
_SL_BasType=  0.000000000000000    
_SL_Energy_Pred=  0.000000000000000    
_SL_New_Coords=  0.000000000000000    
_SL_Total_Nuclea=  0.000000000000000    
_SL_Highest_Mltp=  0.000000000000000    
_SL_Ref_Geom=  0.000000000000000    
_SL_Symmetry_ope=  1.000000000000000    
_SL_agrad=  0.000000000000000    
_SL_GrdMax=  0.000000000000000    
_SL_GrdNorm=  0.000000000000000    
_SL_GrdRMS=  0.000000000000000    
!LATTICE= -1.000000000000000    
!NEWLATTICE=  0.000000000000000    
!LATGRAD_VAR=FALSE
!SEW_LATTICE=  1.000000000000000    
!LOCAL=  0.000000000000000    
!SAVEDOM= -1.000000000000000    
!RESTDOM= -1.000000000000000    
!SAVEDOM_HF= -1.000000000000000    
!RESTDOM_HF= -1.000000000000000    
!HESSREC=  0.000000000000000    
!FREQREC=  0.000000000000000    
!NMODREC=  0.000000000000000    
!GTASKS=  0.000000000000000    
!HTASKS=  0.000000000000000    
!THRCHG= 0.1000000000000000    
!DEBUG= -1.000000000000000    
!CFIT_CPHF=  0.000000000000000    
!RDOMAUX_CPHF=  3.000000000000000    
!THRAO_CPHF= 0.1000000000000000E-09
!THRMO_CPHF= 0.1000000000000000E-08
!THROV_CPHF= 0.1000000000000000E-11
!THRSW_CPHF= 0.1000000000000000E-09
!THRPROD_CPHF= 0.1000000000000000E-08
!THRAOPR_CPHF= 0.1000000000000000E-11
!CFIT_SCFGRD=  0.000000000000000    
!RDOMAUX_SCFGRD=  5.000000000000000    
!THRAO_SCFGRD= 0.1000000000000000E-09
!THRMO_SCFGRD= 0.1000000000000000E-08
!THROV_SCFGRD= 0.1000000000000000E-11
!THRSW_SCFGRD= 0.1000000000000000E-09
!THRPROD_SCFGRD= 0.1000000000000000E-08
!THRAOPR_SCFGRD= 0.1000000000000000E-11
!LOCFIT_SCF=  0.000000000000000    
!LOCFIT_MP2= -1.000000000000000    
_RIDOM=  0.000000000000000    
!CC2_METHOD=  0.000000000000000    
_BASIS2006=FALSE
_SVDDEL= -1.000000000000000    
_SVDDELA= -1.000000000000000    
_SVDDELP= -1.000000000000000    
_SVDDELF= -1.000000000000000    
_SVDDELS= -1.000000000000000    
_SVDDEL_ABS= -1.000000000000000    
_SVDDELA_ABS= -1.000000000000000    
_SVDDELP_ABS= -1.000000000000000    
_SVDDELF_ABS= -1.000000000000000    
_SVDDELS_ABS= -1.000000000000000    
_MAXBASIS=  0.000000000000000    
!OPT_CONICAL=  0.000000000000000    
!CLEARSP_JGRID=  0.000000000000000    
_4EXT_NDISKS=  1.000000000000000    
!ZMP=  0.000000000000000    
_MAXIT_ZMP=  500.0000000000000    
_MAXDIS_ZMP=  100.0000000000000    
_ACCU_ZMP=  14.00000000000000    
_SHIFTA_ZMP= -100.0000000000000    
!EMBEDFLAG=  1.000000000000000    
!EMBED=FALSE
!EMBED_F12=FALSE
!EMBEDNUC=  0.000000000000000    
_EMBEDENERGY=  0.000000000000000    
_KSPACETIME=  0.000000000000000    
_RSPACETIME=  0.000000000000000    
!EMBED_DFC=FALSE
!NUM_VOIDS=  0.000000000000000    
_IBODY=  0.000000000000000    
_EMBE_TOTAL=  0.000000000000000    
_EMBE_HF=  0.000000000000000    
_EMBE_CORR=  0.000000000000000    
!EDFT=  0.000000000000000    
_IFASTLATGRAD=  0.000000000000000    
_SINDEX=  0.000000000000000    
M_NAME=CASSCF(10,8)
M_CLOSED=  10.00000000000000    
M_OCC=  11.00000000000000    
GX1=  2.696450217000000    
GY1=  0.000000000000000    
GZ1=  0.000000000000000    
GX2=  1.366649938000000    
GY2= -2.157500324000000    
GZ2=  0.000000000000000    
GX3= -1.275187193000000    
GY3= -2.266726495000000    
GZ3=  0.000000000000000    
GX4= -2.628609049000000    
GY4=  0.000000000000000    
GZ4=  0.000000000000000    
GX5=  2.474029451000000    
GY5= -3.891324050000000    
GZ5=  0.000000000000000    
GX6= -2.232900397000000    
GY6= -4.081997416000000    
GZ6=  0.000000000000000    
GX7= -4.682552381000000    
GY7=  0.000000000000000    
GZ7=  0.000000000000000    
GX8= -1.275187193000000    
GY8=  2.266726495000000    
GZ8=  0.000000000000000    
GX9=  1.366649938000000    
GY9=  2.157500324000000    
GZ9=  0.000000000000000    
GX10= -2.232900397000000    
GY10=  4.081997416000000    
GZ10=  0.000000000000000    
GX11=  2.474029451000000    
GY11=  3.891324050000000    
GZ11=  0.000000000000000    
_TRDMX=-0.1137856952182772    
_TRDMY=  0.000000000000000    
_TRDMZ=  0.000000000000000    
_QMXX= -2.184205493840892    
_QMYY=  5.827568561008519    
_QMZZ= -3.643363067167627    
_QMXY=  0.000000000000000    
_QMXZ=  0.000000000000000    
_QMYZ=  0.000000000000000    
_QMRR= -77.17260136779527    
[Atoms] Angs
N     1    7         1.4269000000        0.0000000000        0.0000000000
C     2    6         0.7231999999       -1.1416999999        0.0000000000
C     3    6        -0.6747999997       -1.1995000002        0.0000000000
C     4    6        -1.3910000001        0.0000000000        0.0000000000
H     5    1         1.3091999999       -2.0592000001        0.0000000000
H     6    1        -1.1816000001       -2.1600999997        0.0000000000
H     7    1        -2.4779000000        0.0000000000        0.0000000000
C     8    6        -0.6747999997        1.1995000002        0.0000000000
C     9    6         0.7231999999        1.1416999999        0.0000000000
H    10    1        -1.1816000001        2.1600999997        0.0000000000
H    11    1         1.3091999999        2.0592000001        0.0000000000
[GTO]
  1 0
 s    8  1.00
  0.9046000000D+04  0.6996174134D-03
  0.1357000000D+04  0.5386054630D-02
  0.3093000000D+03  0.2739102119D-01
  0.8773000000D+02  0.1031505920D+00
  0.2856000000D+02  0.2785706633D+00
  0.1021000000D+02  0.4482948495D+00
  0.3838000000D+01  0.2780859284D+00
  0.7466000000D+00  0.1543156123D-01
 s    8  1.00
  0.9046000000D+04 -0.3049900960D-03
  0.1357000000D+04 -0.2408026379D-02
  0.3093000000D+03 -0.1194444873D-01
  0.8773000000D+02 -0.4892599291D-01
  0.2856000000D+02 -0.1344727247D+00
  0.1021000000D+02 -0.3151125777D+00
  0.3838000000D+01 -0.2428578325D+00
  0.7466000000D+00  0.1094382207D+01
 s    1  1.00
  0.2248000000D+00  0.1000000000D+01
 p    3  1.00
  0.1355000000D+02  0.5890567677D-01
  0.2917000000D+01  0.3204611067D+00
  0.7973000000D+00  0.7530420618D+00
 p    1  1.00
  0.2185000000D+00  0.1000000000D+01
 d    1  1.00
  0.8170000000D+00  0.1000000000D+01
  
  2 0
 s    8  1.00
  0.6665000000D+04  0.6915839628D-03
  0.1000000000D+04  0.5325796153D-02
  0.2280000000D+03  0.2706072104D-01
  0.6471000000D+02  0.1016568461D+00
  0.2106000000D+02  0.2745748236D+00
  0.7495000000D+01  0.4482943189D+00
  0.2797000000D+01  0.2849026107D+00
  0.5215000000D+00  0.1519485921D-01
 s    8  1.00
  0.6665000000D+04 -0.2932696527D-03
  0.1000000000D+04 -0.2318035474D-02
  0.2280000000D+03 -0.1149978604D-01
  0.6471000000D+02 -0.4682672701D-01
  0.2106000000D+02 -0.1284661688D+00
  0.7495000000D+01 -0.3012662725D+00
  0.2797000000D+01 -0.2556307023D+00
  0.5215000000D+00  0.1093793361D+01
 s    1  1.00
  0.1596000000D+00  0.1000000000D+01
 p    3  1.00
  0.9439000000D+01  0.5697925159D-01
  0.2002000000D+01  0.3132072115D+00
  0.5456000000D+00  0.7603767417D+00
 p    1  1.00
  0.1517000000D+00  0.1000000000D+01
 d    1  1.00
  0.5500000000D+00  0.1000000000D+01
  
  9 0
 s    8  1.00
  0.6665000000D+04  0.6915839628D-03
  0.1000000000D+04  0.5325796153D-02
  0.2280000000D+03  0.2706072104D-01
  0.6471000000D+02  0.1016568461D+00
  0.2106000000D+02  0.2745748236D+00
  0.7495000000D+01  0.4482943189D+00
  0.2797000000D+01  0.2849026107D+00
  0.5215000000D+00  0.1519485921D-01
 s    8  1.00
  0.6665000000D+04 -0.2932696527D-03
  0.1000000000D+04 -0.2318035474D-02
  0.2280000000D+03 -0.1149978604D-01
  0.6471000000D+02 -0.4682672701D-01
  0.2106000000D+02 -0.1284661688D+00
  0.7495000000D+01 -0.3012662725D+00
  0.2797000000D+01 -0.2556307023D+00
  0.5215000000D+00  0.1093793361D+01
 s    1  1.00
  0.1596000000D+00  0.1000000000D+01
 p    3  1.00
  0.9439000000D+01  0.5697925159D-01
  0.2002000000D+01  0.3132072115D+00
  0.5456000000D+00  0.7603767417D+00
 p    1  1.00
  0.1517000000D+00  0.1000000000D+01
 d    1  1.00
  0.5500000000D+00  0.1000000000D+01
  
  3 0
 s    8  1.00
  0.6665000000D+04  0.6915839628D-03
  0.1000000000D+04  0.5325796153D-02
  0.2280000000D+03  0.2706072104D-01
  0.6471000000D+02  0.1016568461D+00
  0.2106000000D+02  0.2745748236D+00
  0.7495000000D+01  0.4482943189D+00
  0.2797000000D+01  0.2849026107D+00
  0.5215000000D+00  0.1519485921D-01
 s    8  1.00
  0.6665000000D+04 -0.2932696527D-03
  0.1000000000D+04 -0.2318035474D-02
  0.2280000000D+03 -0.1149978604D-01
  0.6471000000D+02 -0.4682672701D-01
  0.2106000000D+02 -0.1284661688D+00
  0.7495000000D+01 -0.3012662725D+00
  0.2797000000D+01 -0.2556307023D+00
  0.5215000000D+00  0.1093793361D+01
 s    1  1.00
  0.1596000000D+00  0.1000000000D+01
 p    3  1.00
  0.9439000000D+01  0.5697925159D-01
  0.2002000000D+01  0.3132072115D+00
  0.5456000000D+00  0.7603767417D+00
 p    1  1.00
  0.1517000000D+00  0.1000000000D+01
 d    1  1.00
  0.5500000000D+00  0.1000000000D+01
  
  8 0
 s    8  1.00
  0.6665000000D+04  0.6915839628D-03
  0.1000000000D+04  0.5325796153D-02
  0.2280000000D+03  0.2706072104D-01
  0.6471000000D+02  0.1016568461D+00
  0.2106000000D+02  0.2745748236D+00
  0.7495000000D+01  0.4482943189D+00
  0.2797000000D+01  0.2849026107D+00
  0.5215000000D+00  0.1519485921D-01
 s    8  1.00
  0.6665000000D+04 -0.2932696527D-03
  0.1000000000D+04 -0.2318035474D-02
  0.2280000000D+03 -0.1149978604D-01
  0.6471000000D+02 -0.4682672701D-01
  0.2106000000D+02 -0.1284661688D+00
  0.7495000000D+01 -0.3012662725D+00
  0.2797000000D+01 -0.2556307023D+00
  0.5215000000D+00  0.1093793361D+01
 s    1  1.00
  0.1596000000D+00  0.1000000000D+01
 p    3  1.00
  0.9439000000D+01  0.5697925159D-01
  0.2002000000D+01  0.3132072115D+00
  0.5456000000D+00  0.7603767417D+00
 p    1  1.00
  0.1517000000D+00  0.1000000000D+01
 d    1  1.00
  0.5500000000D+00  0.1000000000D+01
  
  4 0
 s    8  1.00
  0.6665000000D+04  0.6915839628D-03
  0.1000000000D+04  0.5325796153D-02
  0.2280000000D+03  0.2706072104D-01
  0.6471000000D+02  0.1016568461D+00
  0.2106000000D+02  0.2745748236D+00
  0.7495000000D+01  0.4482943189D+00
  0.2797000000D+01  0.2849026107D+00
  0.5215000000D+00  0.1519485921D-01
 s    8  1.00
  0.6665000000D+04 -0.2932696527D-03
  0.1000000000D+04 -0.2318035474D-02
  0.2280000000D+03 -0.1149978604D-01
  0.6471000000D+02 -0.4682672701D-01
  0.2106000000D+02 -0.1284661688D+00
  0.7495000000D+01 -0.3012662725D+00
  0.2797000000D+01 -0.2556307023D+00
  0.5215000000D+00  0.1093793361D+01
 s    1  1.00
  0.1596000000D+00  0.1000000000D+01
 p    3  1.00
  0.9439000000D+01  0.5697925159D-01
  0.2002000000D+01  0.3132072115D+00
  0.5456000000D+00  0.7603767417D+00
 p    1  1.00
  0.1517000000D+00  0.1000000000D+01
 d    1  1.00
  0.5500000000D+00  0.1000000000D+01
  
  5 0
 s    3  1.00
  0.1301000000D+02  0.3349872639D-01
  0.1962000000D+01  0.2348008012D+00
  0.4446000000D+00  0.8136829579D+00
 s    1  1.00
  0.1220000000D+00  0.1000000000D+01
 p    1  1.00
  0.7270000000D+00  0.1000000000D+01
  
 11 0
 s    3  1.00
  0.1301000000D+02  0.3349872639D-01
  0.1962000000D+01  0.2348008012D+00
  0.4446000000D+00  0.8136829579D+00
 s    1  1.00
  0.1220000000D+00  0.1000000000D+01
 p    1  1.00
  0.7270000000D+00  0.1000000000D+01
  
  6 0
 s    3  1.00
  0.1301000000D+02  0.3349872639D-01
  0.1962000000D+01  0.2348008012D+00
  0.4446000000D+00  0.8136829579D+00
 s    1  1.00
  0.1220000000D+00  0.1000000000D+01
 p    1  1.00
  0.7270000000D+00  0.1000000000D+01
  
 10 0
 s    3  1.00
  0.1301000000D+02  0.3349872639D-01
  0.1962000000D+01  0.2348008012D+00
  0.4446000000D+00  0.8136829579D+00
 s    1  1.00
  0.1220000000D+00  0.1000000000D+01
 p    1  1.00
  0.7270000000D+00  0.1000000000D+01
  
  7 0
 s    3  1.00
  0.1301000000D+02  0.3349872639D-01
  0.1962000000D+01  0.2348008012D+00
  0.4446000000D+00  0.8136829579D+00
 s    1  1.00
  0.1220000000D+00  0.1000000000D+01
 p    1  1.00
  0.7270000000D+00  0.1000000000D+01
 
 
[MO]
 Sym=      1.1
 Ene=     -15.5887
 Spin= Alpha
 Occup=    2.000000
1 1.00203595717031
2 0.003517895710285
3 -0.010871644660484
4 -0.001602256680825
5 0.0
6 0.0
7 0.003126280522157
8 0.0
9 0.0
10 -0.000148192852868
11 0.000263917278877
12 -0.000115724426009
13 0.0
14 0.0
15 0.0
16 0.000131804238561
17 0.000121752776283
18 0.004503298870438
19 -0.000004435113353
20 0.000010706072806
21 0.0
22 -0.000503737126592
23 0.002941632463854
24 0.0
25 0.000064201049706
26 -0.000124662821724
27 0.000060461772018
28 -0.000574017025913
29 0.0
30 0.0
31 0.000131804238561
32 0.000121752776283
33 0.004503298870438
34 -0.000004435113353
35 -0.000010706072806
36 0.0
37 -0.000503737126592
38 -0.002941632463854
39 0.0
40 0.000064201049706
41 -0.000124662821724
42 0.000060461772018
43 0.000574017025913
44 0.0
45 0.0
46 0.000128731120674
47 0.000208665901630
48 -0.003941420419850
49 -0.000056653136902
50 -0.000016646807599
51 0.0
52 -0.000774883120246
53 -0.002935051551582
54 0.0
55 -0.000017124376073
56 -0.000019213497288
57 0.000036337873361
58 -0.000228486329909
59 0.0
60 0.0
61 0.000128731120674
62 0.000208665901630
63 -0.003941420419850
64 -0.000056653136902
65 0.000016646807599
66 0.0
67 -0.000774883120246
68 0.002935051551582
69 0.0
70 -0.000017124376073
71 -0.000019213497288
72 0.000036337873361
73 0.000228486329909
74 0.0
75 0.0
76 -0.000210534125924
77 -0.000367567242585
78 0.005209158390854
79 -0.000046933901951
80 0.0
81 0.0
82 0.002383994749633
83 0.0
84 0.0
85 0.000151010862186
86 -0.000049630692095
87 -0.000101380170090
88 0.0
89 0.0
90 0.0
91 -0.000163016636941
92 0.000598526151310
93 -0.000033674917394
94 -0.000235373477458
95 0.0
96 -0.000163016636941
97 0.000598526151310
98 -0.000033674917394
99 0.000235373477458
100 0.0
101 -0.000094274140776
102 -0.000787381050451
103 -0.000013735866640
104 0.000124415318413
105 0.0
106 -0.000094274140776
107 -0.000787381050451
108 -0.000013735866640
109 -0.000124415318413
110 0.0
111 -0.000084602227100
112 0.000545510139895
113 -0.000097426418769
114 0.0
115 0.0
 Sym=      1.2
 Ene=     -11.2573
 Spin= Alpha
 Occup=    2.000000
1 0.0
2 0.0
3 0.0
4 0.0
5 -0.000215783132593
6 0.0
7 0.0
8 0.002754135631385
9 0.0
10 0.0
11 0.0
12 0.0
13 -0.000290753279450
14 0.0
15 0.0
16 0.70833753395762
17 0.003359968448032
18 -0.005816874469067
19 0.000234651580838
20 0.000488844088954
21 0.0
22 0.003496612710260
23 0.000267857579305
24 0.0
25 0.000244036392483
26 0.000140991404764
27 -0.000385027797247
28 0.000114121088088
29 0.0
30 0.0
31 -0.70833753395762
32 -0.003359968448032
33 0.005816874469067
34 -0.000234651580838
35 0.000488844088954
36 0.0
37 -0.003496612710260
38 0.000267857579305
39 0.0
40 -0.000244036392483
41 -0.000140991404764
42 0.000385027797247
43 0.000114121088088
44 0.0
45 0.0
46 0.023189559419812
47 -0.000095766589712
48 0.001940419956405
49 -0.000043852838097
50 0.000073724015921
51 0.0
52 0.002989661374987
53 -0.000858986869320
54 0.0
55 -0.000133052825565
56 -0.000092239225912
57 0.000225292051478
58 0.000010553608356
59 0.0
60 0.0
61 -0.023189559419812
62 0.000095766589712
63 -0.001940419956405
64 0.000043852838097
65 0.000073724015921
66 0.0
67 -0.002989661374987
68 -0.000858986869320
69 0.0
70 0.000133052825565
71 0.000092239225912
72 -0.000225292051478
73 0.000010553608356
74 0.0
75 0.0
76 0.0
77 0.0
78 0.0
79 0.0
80 -0.000035455328460
81 0.0
82 0.0
83 -0.002420922808362
84 0.0
85 0.0
86 0.0
87 0.0
88 -0.000110711103333
89 0.0
90 0.0
91 -0.000323393416043
92 0.000165099931546
93 -0.000008246841343
94 -0.000329581243396
95 0.0
96 0.000323393416043
97 -0.000165099931546
98 0.000008246841343
99 -0.000329581243396
100 0.0
101 0.000002278178153
102 0.000228086683721
103 -0.000033809507548
104 0.000109810618279
105 0.0
106 -0.000002278178153
107 -0.000228086683721
108 0.000033809507548
109 0.000109810618279
110 0.0
111 0.0
112 0.0
113 0.0
114 0.000056464006813
115 0.0
 Sym=      2.1
 Ene=     -11.2573
 Spin= Alpha
 Occup=    2.000000
1 0.000237091684909
2 0.001113019294262
3 -0.005503989150961
4 0.000040421119494
5 0.0
6 0.0
7 0.002435204597890
8 0.0
9 0.0
10 -0.000098773976475
11 -0.000467896243076
12 0.000566670219550
13 0.0
14 0.0
15 0.0
16 0.70808902391871
17 0.002953496384957
18 -0.000443748291972
19 0.000278812980881
20 0.000550045314567
21 0.0
22 -0.000764234280891
23 0.002652706516211
24 0.0
25 0.000235805028545
26 0.000444466899453
27 -0.000680271927998
28 0.000150047708169
29 0.0
30 0.0
31 0.70808902391871
32 0.002953496384957
33 -0.000443748291972
34 0.000278812980881
35 -0.000550045314567
36 0.0
37 -0.000764234280891
38 -0.002652706516211
39 0.0
40 0.000235805028545
41 0.000444466899453
42 -0.000680271927998
43 -0.000150047708169
44 0.0
45 0.0
46 0.023076689689988
47 0.000224199020881
48 -0.004177825927390
49 -0.000058267918051
50 0.000018425397862
51 0.0
52 -0.000548131153928
53 -0.003138247225684
54 0.0
55 -0.000233515575013
56 -0.000132548086691
57 0.000366063661704
58 0.000011014472298
59 0.0
60 0.0
61 0.023076689689988
62 0.000224199020881
63 -0.004177825927390
64 -0.000058267918051
65 -0.000018425397862
66 0.0
67 -0.000548131153928
68 0.003138247225684
69 0.0
70 -0.000233515575013
71 -0.000132548086691
72 0.000366063661704
73 -0.000011014472298
74 0.0
75 0.0
76 0.000342305347492
77 -0.000357498168166
78 0.006363084895854
79 0.000035519490091
80 0.0
81 0.0
82 0.003159065955926
83 0.0
84 0.0
85 0.000166579245640
86 0.000106629370586
87 -0.000273208616226
88 0.0
89 0.0
90 0.0
91 -0.000121789071654
92 0.001504142924235
93 0.000162452165855
94 -0.000380945704861
95 0.0
96 -0.000121789071654
97 0.001504142924235
98 0.000162452165855
99 0.000380945704861
100 0.0
101 -0.000074687126723
102 -0.000700611783737
103 0.000080550781590
104 0.000148177977421
105 0.0
106 -0.000074687126723
107 -0.000700611783737
108 0.000080550781590
109 -0.000148177977421
110 0.0
111 -0.000054785927717
112 0.000804384313873
113 -0.000115668769214
114 0.0
115 0.0
 Sym=      3.1
 Ene=     -11.2409
 Spin= Alpha
 Occup=    2.000000
1 0.000086820991475
2 0.000119418896385
3 -0.001267842007648
4 -0.000020140277076
5 0.0
6 0.0
7 0.000643610760980
8 0.0
9 0.0
10 0.000035136583179
11 0.000039467783950
12 -0.000074604367128
13 0.0
14 0.0
15 0.0
16 -0.023289777358806
17 -0.000372156321910
18 0.003365197788530
19 0.000093165844491
20 0.000024001723643
21 0.0
22 -0.001577539596256
23 0.000861923833849
24 0.0
25 -0.000177786545402
26 0.000022968283716
27 0.000154818261686
28 0.000013957757795
29 0.0
30 0.0
31 -0.023289777358806
32 -0.000372156321910
33 0.003365197788530
34 0.000093165844491
35 -0.000024001723643
36 0.0
37 -0.001577539596256
38 -0.000861923833849
39 0.0
40 -0.000177786545402
41 0.000022968283716
42 0.000154818261686
43 -0.000013957757795
44 0.0
45 0.0
46 0.70647702900418
47 0.003306062877139
48 -0.008092811752687
49 0.000030882306776
50 0.000050612241140
51 0.0
52 -0.001358163809138
53 -0.001642759347110
54 0.0
55 0.000094017966607
56 0.000302321687634
57 -0.000396339654242
58 0.000100969893272
59 0.0
60 0.0
61 0.70647702900418
62 0.003306062877139
63 -0.008092811752687
64 0.000030882306776
65 -0.000050612241140
66 0.0
67 -0.001358163809138
68 0.001642759347110
69 0.0
70 0.000094017966607
71 0.000302321687634
72 -0.000396339654242
73 -0.000100969893272
74 0.0
75 0.0
76 0.071518272034750
77 -0.000166669351991
78 0.003741122019161
79 -0.000061226052973
80 0.0
81 0.0
82 0.002148701308999
83 0.0
84 0.0
85 -0.000212522613595
86 -0.000220336071124
87 0.000432858684719
88 0.0
89 0.0
90 0.0
91 0.000061779692808
92 0.000422837505359
93 -0.000006279582082
94 0.000067243786547
95 0.0
96 0.000061779692808
97 0.000422837505359
98 -0.000006279582082
99 -0.000067243786547
100 0.0
101 -0.000404491175722
102 0.000392693268477
103 -0.000171876282194
104 -0.000328337071018
105 0.0
106 -0.000404491175722
107 0.000392693268477
108 -0.000171876282194
109 0.000328337071018
110 0.0
111 0.000180894909189
112 0.000716704892085
113 0.000137247126594
114 0.0
115 0.0
 Sym=      2.2
 Ene=     -11.2408
 Spin= Alpha
 Occup=    2.000000
1 0.0
2 0.0
3 0.0
4 0.0
5 -0.000029964521219
6 0.0
7 0.0
8 0.000012266072646
9 0.0
10 0.0
11 0.0
12 0.0
13 0.000032688471997
14 0.0
15 0.0
16 -0.023560801077252
17 -0.000246957048199
18 0.001753922176448
19 0.000029111907514
20 0.000051087046790
21 0.0
22 -0.000743322923043
23 0.000546331504523
24 0.0
25 -0.000219586956963
26 -0.000049626046818
27 0.000269213003781
28 0.000038194970192
29 0.0
30 0.0
31 0.023560801077252
32 0.000246957048199
33 -0.001753922176448
34 -0.000029111907514
35 0.000051087046790
36 0.0
37 0.000743322923043
38 0.000546331504523
39 0.0
40 0.000219586956963
41 0.000049626046818
42 -0.000269213003781
43 0.000038194970192
44 0.0
45 0.0
46 0.70834816290788
47 0.003375750464255
48 -0.006967789799507
49 0.000057597716259
50 0.000024119679902
51 0.0
52 -0.000243353167076
53 -0.001551917102944
54 0.0
55 0.000132949547800
56 0.000179977038009
57 -0.000312926585809
58 0.000094341129520
59 0.0
60 0.0
61 -0.70834816290788
62 -0.003375750464255
63 0.006967789799507
64 -0.000057597716259
65 0.000024119679902
66 0.0
67 0.000243353167076
68 -0.001551917102944
69 0.0
70 -0.000132949547800
71 -0.000179977038009
72 0.000312926585809
73 0.000094341129520
74 0.0
75 0.0
76 0.0
77 0.0
78 0.0
79 0.0
80 0.000208559563503
81 0.0
82 0.0
83 -0.001683688449537
84 0.0
85 0.0
86 0.0
87 0.0
88 0.000213076416237
89 0.0
90 0.0
91 0.000082779040981
92 0.000212156739406
93 -0.000054862130015
94 0.000083548689496
95 0.0
96 -0.000082779040981
97 -0.000212156739406
98 0.000054862130015
99 0.000083548689496
100 0.0
101 -0.000306984253971
102 0.000464023014537
103 -0.000184180286850
104 -0.000319116940918
105 0.0
106 0.000306984253971
107 -0.000464023014537
108 0.000184180286850
109 -0.000319116940918
110 0.0
111 0.0
112 0.0
113 0.0
114 0.000047408668621
115 0.0
 Sym=      4.1
 Ene=     -11.2303
 Spin= Alpha
 Occup=    2.000000
1 -0.000012161673073
2 -0.000028948945218
3 0.000028574411989
4 0.000024964299353
5 0.0
6 0.0
7 0.000112353262550
8 0.0
9 0.0
10 -0.000028621914428
11 0.000012005577394
12 0.000016616337034
13 0.0
14 0.0
15 0.0
16 0.001196213137098
17 -0.000093089373190
18 0.000112216839904
19 0.000023261095585
20 -0.000006839608552
21 0.0
22 -0.000232940750864
23 -0.000036090776932
24 0.0
25 0.000087201170037
26 0.000048619411508
27 -0.000135820581545
28 -0.000068677148407
29 0.0
30 0.0
31 0.001196213137098
32 -0.000093089373190
33 0.000112216839904
34 0.000023261095585
35 0.000006839608552
36 0.0
37 -0.000232940750864
38 0.000036090776932
39 0.0
40 0.000087201170037
41 0.000048619411508
42 -0.000135820581545
43 0.000068677148407
44 0.0
45 0.0
46 -0.051161104867174
47 -0.000551336612219
48 0.002772062005876
49 0.000028708641867
50 -0.000085782666082
51 0.0
52 -0.000329366899799
53 0.001546534289594
54 0.0
55 -0.000073623188060
56 -0.000311410087698
57 0.000385033275758
58 0.000060222850500
59 0.0
60 0.0
61 -0.051161104867174
62 -0.000551336612219
63 0.002772062005876
64 0.000028708641867
65 0.000085782666082
66 0.0
67 -0.000329366899799
68 -0.001546534289594
69 0.0
70 -0.000073623188060
71 -0.000311410087698
72 0.000385033275758
73 -0.000060222850500
74 0.0
75 0.0
76 0.99967990494891
77 0.004736110815638
78 -0.009965593321091
79 0.000162170810243
80 0.0
81 0.0
82 -0.002098470444872
83 0.0
84 0.0
85 0.000464483935477
86 0.000112502063635
87 -0.000576985999112
88 0.0
89 0.0
90 0.0
91 -0.000056635783857
92 0.000105973615788
93 0.000013485476678
94 -0.000033295683108
95 0.0
96 -0.000056635783857
97 0.000105973615788
98 0.000013485476678
99 0.000033295683108
100 0.0
101 0.000178071553745
102 0.000316879289983
103 0.000103827486663
104 0.000138517766465
105 0.0
106 0.000178071553745
107 0.000316879289983
108 0.000103827486663
109 -0.000138517766465
110 0.0
111 -0.000530429136036
112 0.000678905524508
113 -0.000552930730971
114 0.0
115 0.0
 Sym=      5.1
 Ene=      -1.2597
 Spin= Alpha
 Occup=    2.000000
1 -0.015317250957999
2 0.32819850049056
3 0.32654724467370
4 -0.10569131413394
5 0.0
6 0.0
7 -0.051212166698625
8 0.0
9 0.0
10 0.002777566342146
11 0.010808318689643
12 -0.013585885031789
13 0.0
14 0.0
15 0.0
16 -0.012413552894273
17 0.18513285194270
18 0.047285631528455
19 0.024974333724131
20 0.10419612181082
21 0.0
22 0.005134288200030
23 -0.009220336059581
24 0.0
25 -0.002725173585748
26 0.014674287296015
27 -0.011949113710268
28 0.015674057596244
29 0.0
30 0.0
31 -0.012413552894273
32 0.18513285194270
33 0.047285631528455
34 0.024974333724131
35 -0.10419612181082
36 0.0
37 0.005134288200030
38 0.009220336059581
39 0.0
40 -0.002725173585748
41 0.014674287296015
42 -0.011949113710268
43 -0.015674057596244
44 0.0
45 0.0
46 -0.006517939767939
47 0.082025939168601
48 0.082547242405732
49 0.035369188651609
50 0.028096493323632
51 0.0
52 0.016243078039251
53 0.035700625857722
54 0.0
55 0.007723123079696
56 -0.001435845910196
57 -0.006287277169500