[Molden Format]
[Molpro variables]
_NUMVAR=  804.0000000000000    
_AVOGAD= 0.6022136736000000E+24
_BOLTZ= 0.1380658000000000E-22
_CLIGHT=  29979245800.00000    
_EV2006= 0.3674930886769165E-01
_EV= 0.3674932534394180E-01
_ENULL= 0.8854187817000000E-11
_KJOULE= 0.3808798324128737E-03
_KJOULE/MOL= 0.3808798324128737E-03
_CM= 0.4556335267302901E-05
_CM-1= 0.4556335267302901E-05
_DEB2SI= 0.3335641000000000E-29
_AMU2AU=  1822.888390000000    
_KCAL= 0.1593601117815568E-02
_KCAL/MOL= 0.1593601117815568E-02
_KELVIN2006= 0.3166828861084835E-05
_KELVIN= 0.3166814820820034E-05
_JOULE= 0.4359748200000000E-17
_HERTZ2006= 0.1519829850815779E-15
_HERTZ= 0.1519829846011223E-15
_HZ2006= 0.1519829850815779E-15
_HZ= 0.1519829846011223E-15
_JPCAL=  4.184000000000000    
_PLANCK= 0.6626075540000000E-33
_TOA2006= 0.5291772490000000    
_TOA= 0.5291772090000000    
_TOANG2006= 0.5291772490000000    
_TOANG= 0.5291772090000000    
_TORAD= 0.1745329251994330E-01
_TOCM=  219474.6306700000    
_TODEBYE=  2.541580000000000    
_TOEV2006=  27.21139610000000    
_TOE= 0.4803242000000000E-09
_TOEV=  27.21138390000000    
_TOHERTZ2006=  6579683899900000.    
_TOHERTZ=  6579683920700000.    
_TOHZ2006=  6579683899900000.    
_TOHZ=  6579683920700000.    
_TOK2006=  315773.3000000000    
_TOK=  315774.7000000000    
_TOKCAL=  627.5096000000000    
_TOKELVIN2006=  315773.3000000000    
_TOKELVIN=  315774.7000000000    
_TOKJ=  2625.500000000000    
_TOKJOULE=  2625.500000000000    
_TOKG= 0.1660565586000000E-26
_ANG2006=  1.889725988578923    
_ANG=  1.889726131421507    
_ANGSTROM2006=  1.889725988578923    
_ANGSTROM=  1.889726131421507    
_RPAREF=  0.000000000000000    
_RPADISS=  0.000000000000000    
_IGNORE_UNDEF=  2.000000000000000    
_STRICTCHECK=  0.000000000000000    
_SEW_ONEEL=  0.000000000000000    
_CPPDONE=FALSE
_DKROLL_DONE=  0.000000000000000    
_FOCKDONE=TRUE
_GRADONE=FALSE
_HESSDONE=FALSE
_INTDONE=TRUE
_SCFDONE=TRUE
_MODUL_BLOCK=FALSE
_MODUL_CUDA=FALSE
_MODUL_SLATER=FALSE
_MODUL_MRCC=FALSE
_MODUL_NBO6=FALSE
_MODUL_NECI=TRUE
_MODUL_AIMS=TRUE
_MRCC_EXEC=
_FITC_AO_SAVED=FALSE
_FITC_MO_SAVED=FALSE
_SHARED_FS=TRUE
_LSTYP=SEWARD
_INTYP=INTS
_GEOMTYP=ZMAT
_GRADTYP=ALASKA
_DIRECT=FALSE
_DKHO= -1.000000000000000    
_SYNCM=  0.000000000000000    
_BASIS=USERDEF
_ZORIENT=  1.000000000000000    
_NELEC=  24.00000000000000    
!SPIN=  0.000000000000000    
_QSDSTEP=  0.000000000000000    
_QSDIRC=  0.000000000000000    
_PROGRAM=MATROP
_CPUSTEP= 0.4100000000000037    
_SYSSTEP= 0.2000000000000002E-01
_WALLSTEP= 0.1800000000000000    
!DFSCF=  0.000000000000000    
!SCSGRD=  0.000000000000000    
_BASINP=  610.0000000000000    
_CPUTOT=  53.33000000000001    
_DFTEXFAC=  1.000000000000000    
_DMX=  0.000000000000000    
_DMY=  0.000000000000000    
_DMZ=  0.000000000000000    
_DMX_SCF=-0.7341826265901914    
_DMY_SCF= 0.7585924299982949E-02
_DMZ_SCF= 0.6154468794861609    
_EHOMO=-0.4868765751330819    
_ELUMO=-0.3721539544769019E-01
_ENUC=  58.85249957685418    
_EPS1= -20.64554076120773    
_GRADEXFAC=  9999.000000000000    
_GRADMETHOD=TRUE
_NMRMETHOD=  0.000000000000000    
!GRID_FREEZE= -1.000000000000000    
_ITERATIONS=  0.000000000000000    
_LASTNELEC=  4.000000000000000    
_LASTSPIN=  2.000000000000000    
_LASTSYM=  1.000000000000000    
_MPP_PROG=  0.000000000000000    
_NPROC_MPP=  1.000000000000000    
_NPROC_MPPX=  1.000000000000000    
_NPROC_SMP=  16.00000000000000    
_NUMSTEP=  0.000000000000000    
_ORBITAL=  2141.200000000000    
_PI=  3.141592653589793    
_SEIG_MIN= 0.2424771728836026E-01
_SEWPROP=TRUE
_STATUS=  0.000000000000000    
_SYSTOT=  1.310000000000000    
_VERSION=  2012001.000000000    
_WALLTOT=  14.30000000000000    
_DATE=24-Jan-19
_LASTORB=MCSCF
_MACHINE=Linux-4.9.0-8-amd64/nympha18.meta.zcu.cz(x86_64) (16 PROC) 64 bit serial version
_OUTPUT=/auto/brno2/home/masiz4am/git/UKRmol-in/tests/suite/C1_scattering_CC/molpro.xml
_PGROUP=C1
_TIME=16:41:16
_LIBMOL=/afs/ics.muni.cz/software/molpro-2012.1/molprop_2012_1_Linux_x86_64_i8/lib/
!VIBCNT=  0.000000000000000    
!RGHFCNT=  0.000000000000000    
!SURFREC=  0.000000000000000    
!POLYREC=  0.000000000000000    
!DIPREC=  0.000000000000000    
!VSCFREC=  0.000000000000000    
!VCIREC=  0.000000000000000    
!PVCIREC=  0.000000000000000    
!VMP2REC=  0.000000000000000    
!VMCSCFREC=  0.000000000000000    
!VMRCIREC=  0.000000000000000    
!VIBINFO=  0.000000000000000    
!GAREC=  0.000000000000000    
!SCFORB=  21002.00000000000    
!MCORB=  21412.00000000000    
!NEWMOL= -1.000000000000000    
!NEWSYM= -1.000000000000000    
_SLFILES=slscratch
_NGSSTO=  9.000000000000000    
_SIN=SIN
_COS=COS
_TAN=TAN
_ACOS=ACOS
_ASIN=ASIN
_ATAN=ATAN
_COSH=COSH
_SINH=SINH
_TANH=TANH
_ABS=ABS
_MOD=MOD
_ERF=ERF
_REFC=REFC
_ERFC=ERFC
_HYPOT=HYPOT
_J0=J0
_J1=J1
_JN=JN
_GAMMA=GAMMA
_LGAMMA=LGAMMA
_Y0=Y0
_Y1=Y1
_YN=YN
_EXP=EXP
_LOG=LOG
_LOG10=LOG10
_SQRT=SQRT
_INT=INT
_NINT=NINT
_MAX=MAX
_MIN=MIN
_COSMO=  0.000000000000000    
_COSMOIT=  0.000000000000000    
_COSMOES=  0.000000000000000    
_COSMOEDS=  0.000000000000000    
_COSMOEC=  0.000000000000000    
_COSMOEDCORR=  0.000000000000000    
_FEPSI=  1.000000000000000    
_SL_IsMM=  0.000000000000000    
_SL_NSYM=  1.000000000000000    
_SL_System_BitSw=  0.000000000000000    
_SL_Unique_atoms=  0.000000000000000    
_SL_GRAD=  0.000000000000000    
_SL_MAXUPD_Hess=  5.000000000000000    
_SL_N_PRINT_COD=  5.000000000000000    
_SL_PRINT_CODES=  0.000000000000000    
_SL_BasType=  0.000000000000000    
_SL_Energy_Pred=  0.000000000000000    
_SL_New_Coords=  0.000000000000000    
_SL_Total_Nuclea=  0.000000000000000    
_SL_Highest_Mltp=  0.000000000000000    
_SL_Ref_Geom=  0.000000000000000    
_SL_Symmetry_ope=  1.000000000000000    
_SL_agrad=  0.000000000000000    
_SL_GrdMax=  0.000000000000000    
_SL_GrdNorm=  0.000000000000000    
_SL_GrdRMS=  0.000000000000000    
!LATTICE= -1.000000000000000    
!NEWLATTICE=  0.000000000000000    
!LATGRAD_VAR=FALSE
!SEW_LATTICE=  1.000000000000000    
!LOCAL=  0.000000000000000    
!SAVEDOM= -1.000000000000000    
!RESTDOM= -1.000000000000000    
!SAVEDOM_HF= -1.000000000000000    
!RESTDOM_HF= -1.000000000000000    
!HESSREC=  0.000000000000000    
!FREQREC=  0.000000000000000    
!NMODREC=  0.000000000000000    
!GTASKS=  0.000000000000000    
!HTASKS=  0.000000000000000    
!THRCHG= 0.1000000000000000    
!DEBUG= -1.000000000000000    
!CFIT_CPHF=  0.000000000000000    
!RDOMAUX_CPHF=  3.000000000000000    
!THRAO_CPHF= 0.1000000000000000E-09
!THRMO_CPHF= 0.1000000000000000E-08
!THROV_CPHF= 0.1000000000000000E-11
!THRSW_CPHF= 0.1000000000000000E-09
!THRPROD_CPHF= 0.1000000000000000E-08
!THRAOPR_CPHF= 0.1000000000000000E-11
!CFIT_SCFGRD=  0.000000000000000    
!RDOMAUX_SCFGRD=  5.000000000000000    
!THRAO_SCFGRD= 0.1000000000000000E-09
!THRMO_SCFGRD= 0.1000000000000000E-08
!THROV_SCFGRD= 0.1000000000000000E-11
!THRSW_SCFGRD= 0.1000000000000000E-09
!THRPROD_SCFGRD= 0.1000000000000000E-08
!THRAOPR_SCFGRD= 0.1000000000000000E-11
!LOCFIT_SCF=  0.000000000000000    
!LOCFIT_MP2= -1.000000000000000    
_RIDOM=  0.000000000000000    
!CC2_METHOD=  0.000000000000000    
_BASIS2006=FALSE
_SVDDEL= -1.000000000000000    
_SVDDELA= -1.000000000000000    
_SVDDELP= -1.000000000000000    
_SVDDELF= -1.000000000000000    
_SVDDELS= -1.000000000000000    
_SVDDEL_ABS= -1.000000000000000    
_SVDDELA_ABS= -1.000000000000000    
_SVDDELP_ABS= -1.000000000000000    
_SVDDELF_ABS= -1.000000000000000    
_SVDDELS_ABS= -1.000000000000000    
_MAXBASIS=  0.000000000000000    
!OPT_CONICAL=  0.000000000000000    
!CLEARSP_JGRID=  0.000000000000000    
_4EXT_NDISKS=  1.000000000000000    
!ZMP=  0.000000000000000    
_MAXIT_ZMP=  500.0000000000000    
_MAXDIS_ZMP=  100.0000000000000    
_ACCU_ZMP=  14.00000000000000    
_SHIFTA_ZMP= -100.0000000000000    
!EMBEDFLAG=  1.000000000000000    
!EMBED=FALSE
!EMBED_F12=FALSE
!EMBEDNUC=  0.000000000000000    
_EMBEDENERGY=  0.000000000000000    
_KSPACETIME=  0.000000000000000    
_RSPACETIME=  0.000000000000000    
!EMBED_DFC=FALSE
!NUM_VOIDS=  0.000000000000000    
_IBODY=  0.000000000000000    
_EMBE_TOTAL=  0.000000000000000    
_EMBE_HF=  0.000000000000000    
_EMBE_CORR=  0.000000000000000    
!EDFT=  0.000000000000000    
_IFASTLATGRAD=  0.000000000000000    
_SINDEX=  0.000000000000000    
M_NAME=CASSCF(4,6)
M_CLOSED=  10.00000000000000    
M_OCC=  16.00000000000000    
GX1=-0.2073029410000000    
GY1=-0.8885491599999999    
GZ1= 0.4610931400000000E-01
GX2=  2.519949606000000    
GY2= 0.6211529320000000    
GZ2=-0.1965315030000000    
GX3= -2.400518923000000    
GY3=  1.048797924000000    
GZ3=-0.5291232800000000E-01
GX4= -2.567003783000000    
GY4=  1.747051676000000    
GZ4=  1.211503331000000    
_TRDMX=-0.4195397035786184E-02
_TRDMY= 0.4786637557858916E-02
_TRDMZ= 0.1077357820072563E-01
_QMXX= -1.880077107017897    
_TRQMXX= 0.4060771852376869E-01
_QMYY=-0.5332472976979119E-01
_TRQMYY=-0.3030707350251758E-01
_QMZZ=  1.933401836787667    
_TRQMZZ=-0.1030064502125117E-01
_QMXY= -1.165449174837558    
_TRQMXY=-0.4412637539323982E-01
_QMXZ= -2.092510227571927    
_TRQMXZ= 0.2304091043464406    
_QMYZ=  1.738027501770236    
_TRQMYZ=-0.5751723818800989    
_QMRR= -36.62665019679748    
_TRQMRR= 0.1107849591553177E-01
[Atoms] Angs
N     1    7        -0.1096999917       -0.4701999645        0.0243999981
O     2    8         1.3334998993        0.3286999749       -0.1039999922
O     3    8        -1.2702999038        0.5549999582       -0.0279999981
H     4    1        -1.3583998974        0.9244999299        0.6410999514
[GTO]
  1 0
 s    8  1.00
  0.9046000000D+04  0.6996174134D-03
  0.1357000000D+04  0.5386054630D-02
  0.3093000000D+03  0.2739102119D-01
  0.8773000000D+02  0.1031505920D+00
  0.2856000000D+02  0.2785706633D+00
  0.1021000000D+02  0.4482948495D+00
  0.3838000000D+01  0.2780859284D+00
  0.7466000000D+00  0.1543156123D-01
 s    8  1.00
  0.9046000000D+04 -0.3049900960D-03
  0.1357000000D+04 -0.2408026379D-02
  0.3093000000D+03 -0.1194444873D-01
  0.8773000000D+02 -0.4892599291D-01
  0.2856000000D+02 -0.1344727247D+00
  0.1021000000D+02 -0.3151125777D+00
  0.3838000000D+01 -0.2428578325D+00
  0.7466000000D+00  0.1094382207D+01
 s    1  1.00
  0.2248000000D+00  0.1000000000D+01
 p    3  1.00
  0.1355000000D+02  0.5890567677D-01
  0.2917000000D+01  0.3204611067D+00
  0.7973000000D+00  0.7530420618D+00
 p    1  1.00
  0.2185000000D+00  0.1000000000D+01
 d    1  1.00
  0.8170000000D+00  0.1000000000D+01
  
  2 0
 s    8  1.00
  0.1172000000D+05  0.7096459465D-03
  0.1759000000D+04  0.5467272292D-02
  0.4008000000D+03  0.2782311861D-01
  0.1137000000D+03  0.1047477397D+00
  0.3703000000D+02  0.2829208464D+00
  0.1327000000D+02  0.4484952387D+00
  0.5025000000D+01  0.2708168852D+00
  0.1013000000D+01  0.1545029161D-01
 s    8  1.00
  0.1172000000D+05 -0.3144434117D-03
  0.1759000000D+04 -0.2482137681D-02
  0.4008000000D+03 -0.1231635538D-01
  0.1137000000D+03 -0.5053891734D-01
  0.3703000000D+02 -0.1393849033D+00
  0.1327000000D+02 -0.3250774948D+00
  0.5025000000D+01 -0.2298483076D+00
  0.1013000000D+01  0.1095379347D+01
 s    1  1.00
  0.3023000000D+00  0.1000000000D+01
 p    3  1.00
  0.1770000000D+02  0.6267916628D-01
  0.3854000000D+01  0.3335365659D+00
  0.1046000000D+01  0.7412396416D+00
 p    1  1.00
  0.2753000000D+00  0.1000000000D+01
 d    1  1.00
  0.1185000000D+01  0.1000000000D+01
  
  3 0
 s    8  1.00
  0.1172000000D+05  0.7096459465D-03
  0.1759000000D+04  0.5467272292D-02
  0.4008000000D+03  0.2782311861D-01
  0.1137000000D+03  0.1047477397D+00
  0.3703000000D+02  0.2829208464D+00
  0.1327000000D+02  0.4484952387D+00
  0.5025000000D+01  0.2708168852D+00
  0.1013000000D+01  0.1545029161D-01
 s    8  1.00
  0.1172000000D+05 -0.3144434117D-03
  0.1759000000D+04 -0.2482137681D-02
  0.4008000000D+03 -0.1231635538D-01
  0.1137000000D+03 -0.5053891734D-01
  0.3703000000D+02 -0.1393849033D+00
  0.1327000000D+02 -0.3250774948D+00
  0.5025000000D+01 -0.2298483076D+00
  0.1013000000D+01  0.1095379347D+01
 s    1  1.00
  0.3023000000D+00  0.1000000000D+01
 p    3  1.00
  0.1770000000D+02  0.6267916628D-01
  0.3854000000D+01  0.3335365659D+00
  0.1046000000D+01  0.7412396416D+00
 p    1  1.00
  0.2753000000D+00  0.1000000000D+01
 d    1  1.00
  0.1185000000D+01  0.1000000000D+01
  
  4 0
 s    3  1.00
  0.1301000000D+02  0.3349872639D-01
  0.1962000000D+01  0.2348008012D+00
  0.4446000000D+00  0.8136829579D+00
 s    1  1.00
  0.1220000000D+00  0.1000000000D+01
 p    1  1.00
  0.7270000000D+00  0.1000000000D+01
 
 
[MO]
 Sym=      1.1
 Ene=     -20.6455
 Spin= Alpha
 Occup=    2.000000
1 -0.000118760276565
2 -0.000218166295023
3 0.001325022046579
4 -0.000144218831360
5 0.000127503237364
6 0.000001982874570
7 -0.000600988300786
8 0.000700092854680
9 -0.000016245247173
10 0.000040613713369
11 0.000047085094469
12 -0.000087698807838
13 -0.000095609164490
14 -0.000020981962878
15 0.000012947973013
16 -0.000371916305914
17 0.000023538824121
18 -0.000133180081938
19 0.000029335698280
20 0.000013342656611
21 0.000002738959693
22 0.000105545218582
23 -0.000030445617215
24 -0.000014780559819
25 -0.000042754983156
26 0.000034180899566
27 0.000008574083590
28 -0.000006148138821
29 0.000005363334228
30 -0.000002539426645
31 1.00141314114970
32 0.002189424623055
33 -0.003333383146173
34 0.000677941588398
35 0.000356734264906
36 0.002064546430073
37 -0.001053977578361
38 0.000832814606598
39 -0.000128017026421
40 -0.000418059999517
41 -0.000080365673947
42 0.000498425673464
43 0.000252333965714
44 -0.000154934139803
45 0.000422895530472
46 -0.001680049074061
47 0.000499045495576
48 -0.000088657908679
49 0.000656067674941
50 0.001338870093450
 Sym=      2.1
 Ene=     -20.6272
 Spin= Alpha
 Occup=    2.000000
1 -0.000194754742886
2 -0.000349756928775
3 0.001401853853253
4 0.000123738060986
5 0.000076382293030
6 -0.000008611719438
7 0.000906470812211
8 0.000599670765840
9 -0.000094069149484
10 0.000141134953942
11 -0.000010235104520
12 -0.000130899849422
13 0.000161878271405
14 -0.000025726824745
15 -0.000019172997181
16 1.00072364235470
17 0.000397637855473
18 -0.003762285056891
19 -0.000904582280182
20 -0.000443685913159
21 0.000091950792951
22 0.001174729468289
23 0.000613523227809
24 -0.000106369089817
25 -0.000180604118227
26 -0.000000466454088
27 0.000181070572315
28 -0.000152675351452
29 0.000033616442465
30 0.000023837391141
31 0.000404820878551
32 0.000021902169078
33 -0.000183039384886
34 -0.000046027808579
35 0.000010576724061
36 0.000007543319902
37 -0.000077189538946
38 -0.000086265012184
39 -0.000013007997678
40 -0.000042910828528
41 0.000029336655423
42 0.000013574173105
43 0.000022147506874
44 0.000009845267232
45 -0.000008319327177
46 -0.000015825814196
47 0.000127534328703
48 -0.000028873809889
49 0.000014403301404
50 -0.000031047443720
 Sym=      3.1
 Ene=     -15.8816
 Spin= Alpha
 Occup=    2.000000
1 1.00076027601591
2 -0.000021294659310
3 -0.004687813507032
4 0.000024652574960
5 0.001998971515890
6 -0.000074698165936
7 -0.000055407035107
8 -0.001831083898155
9 0.000112955086542
10 -0.000249153634479
11 0.000021637281992
12 0.000227516352487
13 -0.000019679549523
14 0.000013565968681
15 0.000040785282832
16 -0.000176925941321
17 -0.000228096139070
18 0.001194854227376
19 -0.000151516213806
20 -0.000061402090986
21 0.000021287315427
22 -0.000677259623795
23 -0.000086689172490
24 0.000039668973110
25 0.000058038105974
26 -0.000057924131350
27 -0.000000113974624
28 -0.000022601392198
29 -0.000001805393515
30 0.000004430573876
31 -0.000109996846178
32 -0.000076865493200
33 0.000729365808239
34 0.000095621746095
35 -0.000140691042973
36 -0.000016473469697
37 0.000644671382863
38 -0.000319625310175
39 -0.000209084905295
40 0.000033048426046
41 -0.000038124630756
42 0.000005076204710
43 0.000091345758711
44 -0.000007568626716
45 -0.000002133384919
46 0.000083122336543
47 0.000608884796456
48 0.000072836074961
49 -0.000176165004263
50 -0.000105450789438
 Sym=      4.1
 Ene=      -1.4838
 Spin= Alpha
 Occup=    2.000000
1 -0.001949669572342
2 0.14671512560006
3 0.12440846969407
4 -0.046751591260206
5 0.056128474502182
6 0.002057835486759
7 -0.013634616180054
8 0.025539395470563
9 0.009827705855442
10 0.005318993433571
11 0.006029765175286
12 -0.011348758608856
13 -0.014318667191659
14 -0.002902124033930
15 0.002236222832561
16 -0.000694680876900
17 0.050413420570240
18 0.047446934241711
19 -0.018158872053239
20 -0.006246219437186
21 0.001852994216976
22 -0.007068668461241
23 -0.002428365856831
24 -0.000379333573022
25 0.002581437783532
26 -0.000883639245850
27 -0.001697798537682
28 0.002028577220852
29 -0.000298379958620
30 -0.000074389005899
31 -0.013220339305471
32 0.41192656953909
33 0.32996160318698
34 0.027802269137356
35 0.017989866292935
36 0.10108046375920
37 0.021368620640659
38 -0.027861220505242
39 -0.017370584696508
40 -0.002824558908167
41 -0.001903158394167
42 0.004727717302333
43 -0.007684148606987
44 0.000126224180451
45 0.007560149218843
46 0.26900439892559
47 -0.003329740391202
48 0.007158673386841
49 -0.023812036419917
50 -0.040057105923074
 Sym=      5.1
 Ene=      -1.2867
 Spin= Alpha
 Occup=    2.000000
1 0.000590140230052
2 0.19495679235457
3 0.18453599786531
4 0.073897792420669
5 0.028476090924535
6 -0.005753066512190
7 0.028944794476350
8 0.015340203873738
9 -0.003729065580764
10 0.008640652219461
11 -0.000925940594665
12 -0.007714711624796
13 0.013716376068854
14 -0.000824299284470
15 -0.001839218174902
16 -0.002316197226637
17 0.42195910642868
18 0.45750214560526
19 -0.054112003605890
20 -0.027300119082133
21 0.005830778906679
22 -0.031979651980356
23 -0.015521108231912
24 0.004637668002658
25 0.007303389919203
26 -0.001991074697395
27 -0.005312315221809
28 0.007840685800519
29 -0.001491567344593
30 -0.000683827598001
31 0.002543162411922
32 -0.10868896968156
33 -0.088440229934150
34 0.035479899990573
35 -0.039263032309611
36 -0.044612733152590
37 0.009595353341273
38 -0.001890815929078
39 0.005270516575486
40 0.004930167313707
41 0.000443015701677
42 -0.005373183015384
43 -0.002721570346409
44 0.001322813183184
45 -0.003838082070047
46 -0.10440057899712
47 -0.004870133906899
48 -0.000851016535328
49 0.008021273557785
50 0.014246840571493
 Sym=      6.1
 Ene=      -1.0594
 Spin= Alpha
 Occup=    2.000000
1 -0.009275446831695
2 -0.40813213856205
3 -0.42028433857142
4 0.063920789596728
5 0.015520864887795
6 -0.002826595524965
7 0.027909769683772
8 0.008049102424982
9 -0.001413953063738
10 -0.003430890683206
11 -0.001456972325966
12 0.004887863009172
13 0.011142436168670
14 -0.001998518556839
15 0.001506387015177
16 0.000753257088753
17 0.24762610502326
18 0.30898211723540
19 0.067868434397501
20 0.032714727107582
21 -0.005846930981901
22 0.026736760807860
23 0.014373648492559
24 -0.002572122725117
25 -0.004050975837387
26 0.001235288879288
27 0.002815686958099
28 -0.004594702645065
29 0.000735415176002
30 0.000451986934199
31 -0.001023097548962
32 0.085966065932891
33 0.038556835768263
34 -0.11283447579168
35 0.15665040719866
36 0.10428170874842
37 -0.049484022571102
38 0.051303732071953
39 0.003317547489218
40 -0.009676065233822
41 -0.003192602260947
42 0.012868667494770
43 0.011670579545046
44 -0.003867771054672
45 0.009091663444264
46 0.19715898778555
47 0.018628365059700
48 0.000651543627771
49 -0.010697689444494
50 -0.024124742019997
 Sym=      7.1
 Ene=      -0.7651
 Spin= Alpha
 Occup=    2.000000
1 0.005362039956269
2 0.14880020956535
3 0.19659496029345
4 0.15411237219835
5 -0.13090294119718
6 0.037154924060967
7 0.080805177607865
8 -0.070384963476165
9 0.026337171356339
10 -0.002926903074099
11 -0.004270409748445
12 0.007197312822544
13 0.020831418357243
14 -0.009203273411990
15 0.008802580553901
16 -0.001053764877964
17 -0.067684090879456
18 -0.10145998685859
19 -0.090488006546280
20 -0.057715562055848
21 0.003428737562750
22 -0.054966440541528
23 -0.031723899047646
24 -0.000970181490933
25 0.003411228660320
26 -0.000014809047321
27 -0.003396419612999
28 0.006721835765362
29 -0.001198777940435
30 -0.000556387421180
31 0.000618040407070
32 -0.14321134644932
33 -0.35123245200586
34 -0.041571979670524
35 0.23140856367709
36 0.42737792933176
37 -0.017747043841298
38 0.10293166955870
39 0.19483915326119
40 -0.013820381293767
41 -0.007842876779631
42 0.021663258073398
43 0.006939470666793
44 0.002635967984140
45 0.012778340073984
46 0.34557068491632
47 0.024301189440163
48 0.007654465343592
49 -0.016301464448386
50 -0.024108628040007
 Sym=      8.1
 Ene=      -0.6292
 Spin= Alpha
 Occup=    2.000000
1 0.005473685387046
2 0.043980300938730
3 0.051409221905829
4 -0.17179320625837
5 -0.18847979452606
6 0.043291644608427
7 -0.10687958720378
8 -0.13501621945995
9 0.029588106269360
10 0.005867142017695
11 -0.015423509473823
12 0.009556367456128
13 -0.014489391313239
14 -0.002893815708621
15 0.006017615545613
16 0.002531886872478
17 0.071939608871548
18 0.11314213000002
19 0.21335289754979
20 0.085556768234539
21 -0.018557351217311
22 0.14571741370138
23 0.052590184935098
24 -0.014212831796676
25 -0.010548838994889
26 0.003997862446704
27 0.006550976548185
28 -0.007365838880064
29 0.001419846502795
30 0.000667844801207
31 -0.000361977455059
32 -0.020920162160659
33 -0.041752033874511
34 -0.28263105067675
35 -0.36251567051999
36 0.21254006662595
37 -0.19747035545263
38 -0.26159883147673
39 0.14512395857789
40 -0.011435428970363
41 0.002438344564817
42 0.008997084405546
43 -0.006129527664351
44 -0.004145975753267
45 -0.009652848292469
46 0.026299442727584
47 0.006659236853240
48 -0.016692045987398
49 -0.023383695707523
50 0.008337753291522
 Sym=      9.1
 Ene=      -0.6162
 Spin= Alpha
 Occup=    2.000000
1 -0.005527200545561
2 -0.080656551603861
3 -0.13143868191781
4 -0.20862842758379
5 0.28556102827058
6 0.039378802268045
7 -0.10601125564395
8 0.18823731001436
9 0.031810863376860
10 -0.003727956751702
11 0.018095728696331
12 -0.014367771944629
13 -0.029343837310811
14 -0.005215156180043
15 0.006702561031865
16 0.002060489595263
17 0.031006416057856
18 0.038228233019584
19 0.062679818780322
20 0.066145312172916
21 -0.010543547578862
22 0.049878907005405
23 0.041267717367686
24 -0.009668766422865
25 -0.000244832388834
26 -0.002207036150560
27 0.002451868539394
28 -0.006906152960749
29 0.000148560367085
30 0.000737610785807
31 -0.004434953709533
32 -0.10060536148228
33 -0.15746680860749
34 0.37768598427111
35 -0.13123636159301
36 0.27596234528828
37 0.27345820823908
38 -0.092076071872484
39 0.20367323232738
40 0.006627540579679
41 -0.007832919432893
42 0.001205378853214
43 -0.012361192448369
44 0.015404548986388
45 -0.002928444864577
46 0.039082392208807
47 -0.029739634561185
48 0.020079576860960
49 -0.009640604606300
50 0.009051489972920
 Sym=     10.1
 Ene=      -0.5066
 Spin= Alpha
 Occup=    2.000000
1 -0.008706182375200
2 -0.10732631650724
3 -0.16984314397395
4 0.16954789279727
5 0.27515507426097
6 -0.009619792693524
7 0.091533663843850
8 0.19534351204716
9 -0.005052508738625
10 0.020056780938354
11 -0.002084447116892
12 -0.017972333821462
13 0.019699527366065
14 -0.004663187712292
15 0.000078469109105
16 -0.003144283168321
17 -0.047979617685303
18 -0.073956354738298
19 -0.35953496842234
20 -0.15680611051109
21 0.026661628431959
22 -0.26767209465167
23 -0.12370337089760
24 0.020210300877259
25 0.013895468063768
26 -0.005195398752308
27 -0.008700069311460
28 0.012394471991443
29 -0.002692861219191
30 -0.001069196338482
31 0.000361903576365
32 0.016323720139216
33 0.037980905564858
34 -0.22285515933870
35 -0.31678210551410
36 0.10099062589546
37 -0.18010350315562
38 -0.23572994104475
39 0.088282639027787
40 -0.000013642581832
41 -0.004329142673578
42 0.004342785255410
43 -0.002969455254148
44 -0.004635207763172
45 -0.008651013818721
46 -0.030146364399883
47 -0.015523517151340
48 -0.013035918597183
49 -0.017629794442302
50 0.010626767428809
 Sym=     11.1
 Ene=      -0.4113
 Spin= Alpha
 Occup=    1.571424
1 -0.000460212617182
2 -0.003107432196763
3 -0.002696174027513
4 0.007756821882369
5 0.005016053378860
6 0.093179928346753
7 0.008039247176831
8 0.004274351429120
9 0.075083786006342
10 0.001329625243150
11 0.000489822057012
12 -0.001819447300162
13 0.001047682826274
14 0.012254420546659
15 0.009280111693582
16 -0.000487528350262
17 -0.002919918047251
18 -0.001599694117810
19 0.049237229502205
20 0.010054291646994
21 0.63599498470048
22 0.036534060101225
23 0.008029812066193
24 0.47543236721451
25 -0.001608503714796
26 -0.000368592257582
27 0.001977095972377
28 -0.000730239662126
29 -0.010967867629338
30 -0.005529347840118
31 0.000223986287654
32 0.004414366449111
33 0.007795947059044
34 -0.000738559639881
35 0.003134014471800
36 -0.019845527082500
37 -0.000028078133342
38 0.000881043284100
39 -0.017841189389958
40 0.000651133680409
41 0.000309829461673
42 -0.000960963142082
43 0.000219535290472
44 0.001261026695353
45 -0.001160578619419
46 -0.010731929219694
47 0.007368915096587
48 0.001113915117057
49 0.000767611462786
50 -0.001052903362314
 Sym=     12.1
 Ene=      -0.3883
 Spin= Alpha
 Occup=    1.570385
1 0.000908054024633
2 0.027445574320514
3 0.060883766147009
4 -0.007870982247293
5 -0.040775247253415
6 0.004545448466002
7 -0.019498319243659
8 -0.020342224108937
9 0.001683932264874
10 -0.011084412132332
11 0.007582493198760
12 0.003501918933571
13 0.009482014901421
14 0.001030916763848
15 -0.000519997597306
16 -0.000510810876289
17 -0.000749070957394
18 0.003826434746356
19 -0.27493684615007
20 0.59151668058584
21 0.009962088703052
22 -0.20876500617216
23 0.44389581597915
24 0.008363618331024
25 0.006411892376999
26 -0.007297825857600
27 0.000885933480600
28 -0.006340888715706
29 -0.000695579746995
30 0.001078603247735
31 0.001351408514810
32 -0.014927997554091
33 -0.050158847718511
34 -0.074647308387581
35 0.026131464523784
36 -0.006436219497238
37 -0.058637569921223
38 0.028078889288844
39 -0.013828612728874
40 -0.000643979014787
41 0.000510605050104
42 0.000133373964683
43 0.002261221405890
44 -0.002241777050874
45 0.000617297853192
46 0.010015399230086
47 0.024905872978928
48 -0.003474874091489
49 -0.000864953335154
50 -0.002861448263758
 Sym=     13.1
 Ene=      -0.2279
 Spin= Alpha
 Occup=    0.833249
1 -0.003148806912959
2 -0.010785000506889
3 0.008808846893667
4 0.052220078320231
5 0.024782346940424
6 0.70428881407876
7 0.027830741312979
8 0.018848118553709
9 0.42819367524697
10 -0.001309840826783
11 0.000855051993491
12 0.000454788833292
13 0.001302262351240
14 -0.000921551421915
15 0.013355554181618
16 0.000125647417870
17 -0.000082923174421
18 -0.001528415926417
19 -0.006259721271377
20 -0.007274882143935
21 -0.16083152065849
22 -0.005235391869896
23 -0.005209926253826
24 -0.13739798841285
25 -0.000716731892670
26 0.000014409302414
27 0.000702322590257
28 -0.000571970000219
29 -0.004272305909430
30 -0.002506300399107
31 -0.001176352713660
32 0.020287963045216
33 0.071930096267065
34 -0.014744079132750
35 0.020575951504167
36 -0.10393381778938
37 -0.013094918456031
38 0.025244188364942
39 -0.080475168833324
40 0.002409773826078
41 0.000846061142064
42 -0.003255834968142
43 0.002330994784884
44 0.006565086039785
45 -0.008267889908196
46 -0.070647893256917
47 -0.002459254902188
48 0.000055107849975
49 0.002994476652454
50 -0.000668504441801
 Sym=     14.1
 Ene=       1.1227
 Spin= Alpha
 Occup=    0.012929
1 -0.002539295754048
2 -0.032792134313558
3 -0.079178205366957
4 0.057465494087869
5 0.009842937309846
6 0.001317147480849
7 0.080271648700470
8 -0.017824507155807
9 0.002210735417647
10 0.022699325514501
11 -0.015626089194735
12 -0.007073236319765
13 -0.016091300708073
14 -0.001414243659533
15 0.001069187087580
16 -0.000413039432656
17 -0.005160046587012
18 -0.013453347230836
19 -0.38375280415912
20 0.85822585920244
21 -0.001486835617709
22 0.43861235177719
23 -0.89833514933337
24 -0.000886463779797
25 -0.005420995018600
26 0.012837633721889
27 -0.007416638703289
28 0.009493800796213
29 0.000412950945492
30 -0.003219610812519
31 -0.001090695070188
32 0.036224085826867
33 0.11878615101398
34 0.10376860000746
35 -0.038600520684250
36 0.007150802242336
37 0.080478153436534
38 -0.059945489644584
39 0.019878933375576
40 -0.002712289483329
41 0.000829671889774
42 0.001882617593555
43 -0.003790792586371
44 0.002818476551648
45 -0.001096176388970
46 -0.006862896678560
47 -0.061850478129728
48 0.005622721412397
49 0.003672989479369
50 0.005240141616139
 Sym=     15.1
 Ene=       1.1913
 Spin= Alpha
 Occup=    0.011007
1 0.000584145341206
2 0.000766451378062
3 -0.005833965607392
4 -0.008633152045102
5 -0.005277109672694
6 -0.13615614461324
7 0.005738829005751
8 -0.002337516701913
9 -0.034242696336872
10 0.002060432246570
11 0.000408977722854
12 -0.002469409969423
13 0.001114166096669
14 0.017270113640778
15 0.007872255102570
16 0.001279811648533
17 0.002294648441889
18 -0.005735046162216
19 -0.062808042701728
20 -0.029734472611756
21 -0.94800788488579
22 0.073998198373602
23 0.034551516349388
24 1.04859186035620
25 -0.001276645911058
26 0.000041731979470
27 0.001234913931587
28 -0.000519882096147
29 -0.008174866125141
30 -0.001742607996420
31 0.001351438053925
32 0.002206190627758
33 -0.016325213908195
34 0.001858642277797
35 -0.000575412407037
36 -0.004384126467209
37 0.003271003592416
38 -0.008486213238828
39 -0.005610249457111
40 0.000374314336908
41 0.000543310410068
42 -0.000917624746976
43 -0.000647170977801
44 -0.000192720004435
45 0.001325021322569
46 0.005156241529513
47 0.023219620256454
48 0.003252658860164
49 0.000618560577796
50 -0.002697896997151
 Sym=     16.1
 Ene=       2.5230
 Spin= Alpha
 Occup=    0.001007
1 -0.018153277543952
2 -0.024274957231182
3 0.10094649404172
4 0.10633298329924
5 0.080129649767816
6 -0.012376228640167
7 0.14646451586086
8 0.084498127049913
9 -0.014004714023715
10 0.037552893335262
11 -0.000297589722097
12 -0.037255303613165
13 0.041007843975378
14 -0.006679570041623
15 -0.004898034293187
16 -0.10632349916409
17 -0.30172619304153
18 0.15426453580477
19 0.13531085200306
20 0.042065188973565
21 -0.009878823980185
22 0.16056978738581
23 0.11303760251836